
 Primary working directories    : /home/jgv/docs/storage/SOURCE/sharcdyn/initialconditions/test_MOLPRO
 Secondary working directories  : /home/jgv/docs/storage/SOURCE/sharcdyn/initialconditions/test_MOLPRO
 Wavefunction directory         : /home/jgv/docs/storage/SOURCE/sharcdyn/initialconditions/test_MOLPRO/
 Main file repository           : /home/jgv/docs/storage/SOURCE/sharcdyn/initialconditions/test_MOLPRO/

 SHA1      : 0c4b58140d9e4d5b90f2e1023eb774a596b0bdf3
 ARCHNAME  : Linux/x86_64
 FC        : /opt/intel/composer_xe_2013.2.146/bin/intel64/ifort
 FCVERSION : 13.1.0
 BLASLIB   : -L/opt/intel/composer_xe_2013.2.146/mkl/lib/intel64 -lmkl_intel_ilp64 -lmkl_sequential -lmkl_core
 id        : uma

 Nodes     nprocs
 espa         1

 Using customized tuning parameters: mindgm=1; mindgv=20; mindgc=4; mindgr=1; noblas=0; minvec=7
 default implementation of scratch files=df  

 basis=cc-pvdz
 
 geom={
     8
  S     0.000000     0.00     0.000000
  C     0.000000     0.00     1.638317
  C     1.201614     0.00     2.471099
  C     1.131932     0.00     3.825576
  H     2.034544     0.00     4.444210
  H     0.163180     0.00     4.338568
  H     2.168571    -0.00     1.954510
  H    -0.954244    -0.00     2.195820
 }
 
 {hf}
 {mp2}
 {optg}
 
 {freq
  print hessian=1
 }
 put molden mp2.molden

 Variables initialized (771), CPU time= 0.01 sec
 Commands  initialized (545), CPU time= 0.02 sec, 516 directives.
 Default parameters read. Elapsed time= 0.06 sec

 Checking input...
 Passed
1


                                         ***  PROGRAM SYSTEM MOLPRO  ***
                         Copyright, University College Cardiff Consultants Limited, 2008

                                    Version 2012.1 linked 26 Mar 2013 19:49:59


 **********************************************************************************************************************************
 LABEL *                                                                                 
 Linux-3.13.0-96-generic/espa(x86_64) 64 bit serial version                              DATE: 03-Nov-16          TIME: 09:38:21  
 **********************************************************************************************************************************

 SHA1:             0c4b58140d9e4d5b90f2e1023eb774a596b0bdf3
 **********************************************************************************************************************************

 Variable memory set to    8000000 words,  buffer space   230000 words

 SETTING BASIS          =    CC-PVDZ

Geometry recognized as XYZ



 Recomputing integrals since basis changed


 Using spherical harmonics

 Library entry S      S cc-pVDZ              selected for orbital group  1
 Library entry S      P cc-pVDZ              selected for orbital group  1
 Library entry S      D cc-pVDZ              selected for orbital group  1
 Library entry C      S cc-pVDZ              selected for orbital group  2
 Library entry C      P cc-pVDZ              selected for orbital group  2
 Library entry C      D cc-pVDZ              selected for orbital group  2
 Library entry H      S cc-pVDZ              selected for orbital group  3
 Library entry H      P cc-pVDZ              selected for orbital group  3

1PROGRAM * SEWARD (Integral evaluation for generally contracted gaussian basis sets)     Author: Roland Lindh, 1990

 Geometry written to block  1 of record 700


 Point group  Cs  



 ATOMIC COORDINATES

 NR  ATOM    CHARGE       X              Y              Z

   1  S      16.00    0.000000000    0.000000000    0.000000000
   2  C       6.00    0.000000000    0.000000000    3.095970446
   3  C       6.00    2.270721376    0.000000000    4.669700354
   4  C       6.00    2.139041479    0.000000000    7.229290935
   5  H       1.00    3.844730962    0.000000000    8.398339771
   6  H       1.00    0.308365510    0.000000000    8.198705323
   7  H       1.00    4.098005287    0.000000000    3.693488621
   8  H       1.00   -1.803259823    0.000000000    4.149498434

 Bond lengths in Bohr (Angstrom)

 1-2  3.095970446  2-3  2.762752502  2-8  2.088460488  3-4  2.562975524  3-7  2.071703608
     ( 1.638317000)     ( 1.461985658)     ( 1.105165692)     ( 1.356268235)     ( 1.096298333)

 4-5  2.067861647  4-6  2.071506399
     ( 1.094265255)     ( 1.096193974)

 Bond angles

  1-2-3  124.72400464   1-2-8  120.29497904   2-3-4  121.77898022   2-3-7  117.16299234

  3-2-8  114.98101632   3-4-5  121.48101250   3-4-6  120.84799087   4-3-7  121.05802744

  5-4-6  117.67099663

 NUCLEAR CHARGE:                   38
 NUMBER OF PRIMITIVE AOS:         151
 NUMBER OF SYMMETRY AOS:          147
 NUMBER OF CONTRACTIONS:           80   (  59A'  +  21A"  )
 NUMBER OF CORE ORBITALS:           8   (   7A'  +   1A"  )
 NUMBER OF VALENCE ORBITALS:       20   (  16A'  +   4A"  )


 NUCLEAR REPULSION ENERGY  130.57321552


 Eigenvalues of metric

         1 0.245E-02 0.378E-02 0.656E-02 0.144E-01 0.184E-01 0.210E-01 0.295E-01 0.332E-01
         2 0.807E-01 0.985E-01 0.152E+00 0.196E+00 0.320E+00 0.369E+00 0.450E+00 0.483E+00


 Contracted 2-electron integrals neglected if value below      1.0D-11
 AO integral compression algorithm  1   Integral accuracy      1.0D-11

     13.369 MB (compressed) written to integral file ( 51.5%)


 NUMBER OF SORTED TWO-ELECTRON INTEGRALS:    2820741.     BUFFER LENGTH:  32768
 NUMBER OF SEGMENTS:   1  SEGMENT LENGTH:    2820741      RECORD LENGTH: 524288

 Memory used in sort:       3.38 MW

 SORT1 READ     3183282. AND WROTE     2713827. INTEGRALS IN      8 RECORDS. CPU TIME:     0.08 SEC, REAL TIME:     0.14 SEC
 SORT2 READ     2713827. AND WROTE     2820741. INTEGRALS IN     51 RECORDS. CPU TIME:     0.12 SEC, REAL TIME:     0.18 SEC

 FILE SIZES:   FILE 1:    21.2 MBYTE,  FILE 4:    33.6 MBYTE,   TOTAL:     54.8 MBYTE

 OPERATOR DM      FOR CENTER  0  COORDINATES:    0.000000    0.000000    0.000000


 **********************************************************************************************************************************
 DATASETS  * FILE   NREC   LENGTH (MB)   RECORD NAMES
              1      19       19.23       500      610      700      900      950      970     1000      129      960     1100   
                                          VAR    BASINP    GEOM    SYMINP    ZMAT    AOBASIS   BASIS     P2S    ABASIS      S 
                                         1400     1410     1200     1210     1080     1600     1650     1300     1700   
                                           T        V       H0       H01     AOSYM     SMH    MOLCAS    ERIS     OPER   

 PROGRAMS   *        TOTAL       INT
 CPU TIMES  *         1.81      1.65
 REAL TIME  *         2.09 SEC
 DISK USED  *        55.21 MB      
 **********************************************************************************************************************************

1PROGRAM * RHF-SCF (CLOSED SHELL)       Authors: W. Meyer, H.-J. Werner


 NUMBER OF ELECTRONS:      19+   19-
 CONVERGENCE THRESHOLDS:    1.00E-06 (Density)    1.00E-07 (Energy)
 MAX. NUMBER OF ITERATIONS:       60
 INTERPOLATION TYPE:            DIIS
 INTERPOLATION STEPS:              2 (START)      1 (STEP)
 LEVEL SHIFTS:                  0.00 (CLOSED)  0.00 (OPEN) 



 Orbital guess generated from atomic densities. Full valence occupancy:   23   5

 Molecular orbital dump at record        2100.2

 Initial alpha occupancy:  16   3
 Initial beta  occupancy:  16   3
 Wave function symmetry:    1

 ITERATION    DDIFF          GRAD             ENERGY        2-EL.EN.            DIPOLE MOMENTS         DIIS   ORB.
    1      0.000D+00      0.000D+00      -513.38712576    641.095950    0.22505    0.00000    1.88918    0    start
    2      0.000D+00      0.574D-02      -513.42054124    640.627485    0.25196    0.00000    1.01900    1    diag
    3      0.166D-01      0.269D-02      -513.42691494    640.571125    0.19579    0.00000    1.39653    2    diag
    4      0.642D-02      0.115D-02      -513.42829956    640.748129    0.20024    0.00000    1.32051    3    diag
    5      0.281D-02      0.214D-03      -513.42836800    640.674497    0.20389    0.00000    1.32074    4    diag
    6      0.547D-03      0.961D-04      -513.42838662    640.682753    0.20249    0.00000    1.32691    5    diag
    7      0.296D-03      0.352D-04      -513.42839033    640.686935    0.20315    0.00000    1.32837    6    diag
    8      0.150D-03      0.126D-04      -513.42839082    640.687388    0.20350    0.00000    1.33093    7    diag
    9      0.592D-04      0.547D-05      -513.42839089    640.687297    0.20356    0.00000    1.33126    8    diag
   10      0.216D-04      0.184D-05      -513.42839090    640.687899    0.20369    0.00000    1.33177    9    orth
   11      0.104D-04      0.563D-06      -513.42839090    640.687832    0.20372    0.00000    1.33191    9    diag
   12      0.310D-05      0.157D-06      -513.42839090    640.687869    0.20372    0.00000    1.33194    9    diag
   13      0.602D-06      0.554D-07      -513.42839090    640.687858    0.20373    0.00000    1.33194    0    orth

 Final occupancy:  16   3

 !RHF STATE 1.1 Energy               -513.428390903892
 Nuclear energy                       130.57321552
 One-electron energy                 -964.34553533
 Two-electron energy                  320.34392891
 Virial quotient                       -1.00060841
 !RHF STATE 1.1 Dipole moment           0.20372593     0.00000000     1.33194234
 Dipole moment /Debye                   0.51778576     0.00000000     3.38523801

 Orbital energies:

         1.1          2.1          3.1          4.1          5.1          6.1          7.1          8.1          9.1         10.1
    -91.935002   -11.325262   -11.282177   -11.269504    -8.937799    -6.619376    -6.615519    -1.114736    -1.014556    -0.845683

        11.1         12.1         13.1         14.1         15.1         16.1         17.1         18.1
     -0.767719    -0.638587    -0.636033    -0.541308    -0.514043    -0.339614     0.182357     0.197258

         1.2          2.2          3.2          4.2          5.2
     -6.618066    -0.462890    -0.350965     0.035941     0.188700

 HOMO     16.1    -0.339614 =      -9.2414eV
 LUMO      4.2     0.035941 =       0.9780eV
 LUMO-HOMO         0.375556 =      10.2194eV


 **********************************************************************************************************************************
 DATASETS  * FILE   NREC   LENGTH (MB)   RECORD NAMES
              1      19       19.23       500      610      700      900      950      970     1000      129      960     1100   
                                          VAR    BASINP    GEOM    SYMINP    ZMAT    AOBASIS   BASIS     P2S    ABASIS      S 
                                         1400     1410     1200     1210     1080     1600     1650     1300     1700   
                                           T        V       H0       H01     AOSYM     SMH    MOLCAS    ERIS     OPER   

              2       4        0.50       700     1000      520     2100   
                                         GEOM     BASIS   MCVARS     RHF  

 PROGRAMS   *        TOTAL        HF       INT
 CPU TIMES  *         2.37      0.56      1.65
 REAL TIME  *         2.78 SEC
 DISK USED  *        55.21 MB      
 **********************************************************************************************************************************


1PROGRAM * MP2 (Closed-shell)     Authors: C. Hampel, H.-J. Werner, 1991, M. Deegan, P.J. Knowles, 1992


 Convergence thresholds:  THRVAR = 1.00D-12  THRDEN = 1.00D-08

 Number of core orbitals:           8 (   7   1 )
 Number of closed-shell orbitals:  11 (   9   2 )
 Number of external orbitals:      61 (  43  18 )

 Molecular orbitals read from record     2100.2  Type=RHF/CANONICAL (state 1.1)

 Number of N-1 electron functions:              11
 Number of N-2 electron functions:              66
 Number of singly external CSFs:               423
 Number of doubly external CSFs:            120552
 Total number of CSFs:                      120976

 Length of J-op  integral file:               0.00 MB
 Length of K-op  integral file:               0.30 MB

 Integral transformation finished. Total CPU:   0.14 sec, npass=  1  Memory used:   0.38 MW

 Memory needed for MP2:                      0.02 MW

 SCS-MP2 correlation energy:           -0.520015989607   (PS=  1.200000  PT=  0.333333)
 SCS-MP2 total energy:               -513.948406893498


  Reference energy                   -513.428390903891
  MP2 singlet pair energy              -0.331543005368
  MP2 triplet pair energy              -0.196335615801
  MP2 correlation energy               -0.527878621169

 !MP2 total energy                   -513.956269525060

 KEXT needed  1 integral passes. Memory used:   0.60 MW  CPU time:      0.53 sec


 Starting Coupled-perturbed Hartree-Fock, convergence threshold= 1.0D-06

 ITER   MIC  DIIS      VAR         VARC       CPU
   1     0     1    0.77D-01    0.25D-02     0.04
   2     7     2    0.69D-03    0.60D-03     0.07
   3     3     3    0.51D-04    0.22D-04     0.11
   4     4     4    0.27D-05    0.81D-06     0.15
   5     2     5    0.36D-06    0.16D-07     0.19

 CPHF convergence reached in  5 macroiterations and   16 microiterations.   Accuracy: 3.5935D-07

 CPHF solution written to record  4101.2

 Dipole moments (unrelaxed):            0.20434336     0.00000000     1.29200492
 Orbital relaxation contribution:      -0.02585044     0.00000000    -0.36553607
 !!MP2 STATE 1.1 Dipole moment          0.17849293     0.00000000     0.92646885
 Dipole moment /Debye                   0.45365405     0.00000000     2.35469471
 
 CPU-time for density and lagrangian:                  0.05 sec
 CPU-time for coupled-perturbed hartree-fock:          0.19 sec

 MP2 Gradient info saved on record         5200.1


 **********************************************************************************************************************************
 DATASETS  * FILE   NREC   LENGTH (MB)   RECORD NAMES
              1      21       23.28       500      610      700      900      950      970     1000      129      960     1100   
                                          VAR    BASINP    GEOM    SYMINP    ZMAT    AOBASIS   BASIS     P2S    ABASIS      S 
                                         1400     1410     1200     1210     1080     1600     1650     1300     1700     1380   
                                           T        V       H0       H01     AOSYM     SMH    MOLCAS    ERIS     OPER     JKOP   
                                         5200   
                                          MP2  

              2       6        0.66       700     1000      520     2100     4100     4101   
                                         GEOM     BASIS   MCVARS     RHF     CPHF     CPHF   

 PROGRAMS   *        TOTAL       MP2        HF       INT
 CPU TIMES  *         3.39      1.02      0.56      1.65
 REAL TIME  *         4.14 SEC
 DISK USED  *        55.21 MB      
 **********************************************************************************************************************************


 PROGRAM * OPT (Geometry optimization)     Authors: F. Eckert and H.-J. Werner


 BFGS update of hessian

 *** Long output written to logfile /home/jgv/docs/storage/SOURCE/sharcdyn/initialconditions/test_MOLPRO/mp2.log ***


 Geometry optimization using default procedure for command MP2

 Geometry written to block  1 of record 700

 Making model hessian for cartesian coordinates

 Quadratic Steepest Descent - Minimum Search

 ITER.   ENERGY(OLD)    ENERGY(NEW)      DE          GRADMAX     GRADNORM    GRADRMS     STEPMAX     STEPLEN     STEPRMS   CPU-time
   1  -513.95626953  -513.95626952     0.00000001  0.00005960  0.00010962  0.00000548  0.00019022  0.00028911  0.00010222      8.71

 END OF GEOMETRY OPTIMIZATION.

 Current geometry (xyz format, in Angstrom)

    8
 MP2/CC-PVDZ  ENERGY=-513.95626952
 S         -0.0000811302        0.0000000000        0.0000413783
 C          0.0000328707        0.0000000000        1.6383088047
 C          1.2016233978        0.0000000000        2.4710965070
 C          1.1319195005        0.0000000000        3.8255898184
 H          2.0345265778        0.0000000000        4.4442412161
 H          0.1631808850        0.0000000000        4.3386089101
 H          2.1686052929        0.0000000000        1.9544787324
 H         -0.9542103945        0.0000000000        2.1957346331

 **********************************************************************************************************************************

 Geometry written to block  1 of record 700


 **********************************************************************************************************************************
 DATASETS  * FILE   NREC   LENGTH (MB)   RECORD NAMES
              1      21       23.38       500      610      700      900      950      970     1000      129      960     1100   
                                          VAR    BASINP    GEOM    SYMINP    ZMAT    AOBASIS   BASIS     P2S    ABASIS      S 
                                         1400     1410     1200     1210     1080     1600     1650     1300     1700     1380   
                                           T        V       H0       H01     AOSYM     SMH    MOLCAS    ERIS     OPER     JKOP   
                                         5200   
                                          MP2  

              2       7        0.68       700     1000      520     2100     4100     4101     9001   
                                         GEOM     BASIS   MCVARS     RHF     CPHF     CPHF    DEN_MP2    

 PROGRAMS   *        TOTAL      OPTG       MP2        HF       INT
 CPU TIMES  *        12.10      8.71      1.02      0.56      1.65
 REAL TIME  *        13.25 SEC
 DISK USED  *        55.53 MB      
 **********************************************************************************************************************************


 PROGRAM * HESSIAN

 Computing numerical hessian using default procedure for command MP2

 Symmetry elements for unique displacements: Y  

 Using no symmetry in wavefunction calculations

 Running default procedure: HF-SCF000  MP2
 

 Numerically approximating hessian using central gradient differences

 Task list generated. Total number of displacements:     40

    5 tasks completed, CPU=1m 3s Elapsed=1m 4s
   10 tasks completed, CPU=2m 7s Elapsed=2m 8s
   15 tasks completed, CPU=3m 12s Elapsed=3m 14s
   20 tasks completed, CPU=4m 17s Elapsed=4m 21s
   25 tasks completed, CPU=5m 21s Elapsed=5m 29s
   30 tasks completed, CPU=6m 25s Elapsed=6m 34s
   35 tasks completed, CPU=7m 29s Elapsed=7m 40s
   40 tasks completed, CPU=8m 33s Elapsed=8m 47s

 Numerical MP2 hessian completed. CPU-time:   513.44 sec, Elapsed:   527.23 sec

 MP2 hessian saved to record  5300.2

 FREQUENCIES * CALCULATION OF HARMONIC VIBRATIONAL SPECTRA FOR MP2


 Permanent Dipole Moment [debye]
   1-  3    0.453672    0.000000    2.354753

 Dipole Moment Norm    2.3980573 [debye]

 Dipole Moment Derivatives [debye/ang]
                   1             2             3             4             5             6             7             8
         1    -0.8940532     0.0000000    -0.5263646     1.4251142     0.0000000     0.6785331    -0.2445624     0.0000000
         2    -0.0000000    -0.6025962     0.0000000     0.0000000    -0.5284511    -0.0000000     0.0000000    -0.3018791
         3    -0.3002523     0.0000000    -1.4033549     1.5281679     0.0000000     2.8348330    -0.7505538     0.0000000
                   9            10            11            12            13            14            15            16
         1    -1.0814330     0.3692155     0.0000000     0.1717848    -0.0694221     0.0000000    -0.1469348    -0.2696511
         2    -0.0000000     0.0000000    -1.0272856     0.0000000    -0.0000000     0.5700112    -0.0000000     0.0000000
         3    -1.6742915    -0.6123394     0.0000000     0.1633591    -0.2650207     0.0000000     0.0983458     0.2262755
                  17            18            19            20            21            22            23            24
         1     0.0000000     0.0305240    -0.0980002     0.0000000     0.2788952    -0.2184553     0.0000000     0.5951608
         2     0.6349014    -0.0000000    -0.0000000     0.6127330    -0.0000000    -0.0000000     0.6425180     0.0000000
         3     0.0000000     0.2488573    -0.0701361     0.0000000     0.0935709     0.2433136     0.0000000    -0.3612852

 Projecting out rotations and translations

 Force Constants (Second Derivatives of the Energy) in [a.u.]
                             GX1         GY1         GZ1         GX2         GY2     
           GX1           0.0351810
           GY1          -0.0000000   0.0097228
           GZ1           0.0030542  -0.0000000   0.4324936
           GX2          -0.0500044  -0.0000000   0.0121318   0.5655436
           GY2          -0.0000000  -0.0316046  -0.0000000   0.0000000   0.1256052
           GZ2           0.0065351  -0.0000000  -0.3732377  -0.0292907   0.0000000
           GX3           0.0077333  -0.0000000  -0.0080742  -0.2412779   0.0000000
           GY3           0.0000000   0.0120170   0.0000000   0.0000000  -0.0616150
           GZ3          -0.0250799   0.0000000  -0.0439674  -0.0751925  -0.0000000
           GX4          -0.0026271   0.0000000  -0.0041506   0.0042808  -0.0000000
           GY4           0.0000000   0.0018787   0.0000000   0.0000000   0.0034229
           GZ4          -0.0024716  -0.0000000   0.0055852  -0.0140395  -0.0000000
           GX5           0.0002195  -0.0000000   0.0004921   0.0002061   0.0000000
           GY5          -0.0000000  -0.0020140  -0.0000000   0.0000000   0.0126619
           GZ5          -0.0009698   0.0000000  -0.0006046   0.0023474  -0.0000000
           GX6          -0.0001613  -0.0000000  -0.0004260   0.0016452  -0.0000000
           GY6          -0.0000000   0.0007533  -0.0000000   0.0000000  -0.0074557
           GZ6          -0.0006127   0.0000000   0.0005159   0.0023474  -0.0000000
           GX7           0.0021718   0.0000000   0.0008124  -0.0186809   0.0000000
           GY7          -0.0000000  -0.0012101  -0.0000000  -0.0000000   0.0020742
           GZ7           0.0005623  -0.0000000   0.0017327  -0.0186668   0.0000000
           GX8           0.0074873   0.0000000  -0.0038397  -0.2617123   0.0000000
           GY8           0.0000000   0.0104569  -0.0000000  -0.0000000  -0.0430888
           GZ8           0.0189824   0.0000000  -0.0225178   0.1203629  -0.0000000
                             GZ2         GX3         GY3         GZ3         GX4     
           GZ2           0.6373446
           GX3          -0.0703044   0.6473665
           GY3          -0.0000000  -0.0000000   0.1127491
           GZ3          -0.1197247  -0.0676126  -0.0000000   0.8112657
           GX4          -0.0311147  -0.1154704  -0.0000000   0.0262510   0.6651236
           GY4          -0.0000000  -0.0000000  -0.0442472   0.0000000  -0.0000000
           GZ4          -0.0378724   0.0390475   0.0000000  -0.5170832   0.0005615
           GX5          -0.0000344   0.0054977   0.0000000   0.0072034  -0.2653752
           GY5          -0.0000000   0.0000000   0.0064612  -0.0000000   0.0000000
           GZ5          -0.0048832  -0.0284821  -0.0000000  -0.0108254  -0.1353616
           GX6          -0.0016670   0.0000672  -0.0000000  -0.0025354  -0.2893063
           GY6           0.0000000   0.0000000   0.0040845   0.0000000  -0.0000000
           GZ6           0.0009812   0.0302581  -0.0000000  -0.0100167   0.1162117
           GX7           0.0144865  -0.2833887  -0.0000000   0.1215052   0.0025193
           GY7           0.0000000   0.0000000  -0.0407612  -0.0000000  -0.0000000
           GZ7           0.0074640   0.1213199  -0.0000000  -0.1178130   0.0284941
           GX8           0.1113895  -0.0205277  -0.0000000   0.0154609   0.0008554
           GY8          -0.0000000   0.0000000   0.0113116  -0.0000000   0.0000000
           GZ8          -0.1100719  -0.0161522   0.0000000   0.0081647  -0.0008914
                             GY4         GZ4         GX5         GY5         GZ5     
           GY4           0.1059870
           GZ4          -0.0000000   0.8242199
           GX5           0.0000000  -0.1410989   0.2714937
           GY5          -0.0352974   0.0000000  -0.0000000   0.0223524
           GZ5          -0.0000000  -0.1483253   0.1491666   0.0000000   0.1539989
           GX6           0.0000000   0.1212241  -0.0135783  -0.0000000   0.0134327
           GY6          -0.0345900  -0.0000000  -0.0000000   0.0030470  -0.0000000
           GZ6          -0.0000000  -0.1177781  -0.0157335   0.0000000   0.0093986
           GX7          -0.0000000  -0.0048570   0.0009729  -0.0000000   0.0001137
           GY7           0.0042871   0.0000000  -0.0000000  -0.0066198  -0.0000000
           GZ7          -0.0000000  -0.0097239  -0.0001079   0.0000000   0.0012020
           GX8          -0.0000000   0.0016339   0.0005636   0.0000000  -0.0002469
           GY8          -0.0014411   0.0000000  -0.0000000  -0.0005913   0.0000000
           GZ8           0.0000000   0.0009778   0.0001126  -0.0000000   0.0000390
                             GX6         GY6         GZ6         GX7         GY7     
           GX6           0.2996053
           GY6           0.0000000   0.0226896
           GZ6          -0.1304799   0.0000000   0.1218388
           GX7           0.0012795   0.0000000  -0.0008299   0.2981501
           GY7          -0.0000000   0.0113005   0.0000000  -0.0000000   0.0273023
           GZ7          -0.0002148   0.0000000  -0.0049209  -0.1284446   0.0000000
           GX8           0.0004486  -0.0000000  -0.0011613  -0.0030239   0.0000000
           GY8           0.0000000   0.0001709  -0.0000000  -0.0000000   0.0036269
           GZ8           0.0006663  -0.0000000  -0.0000189  -0.0027863   0.0000000
                             GZ7         GX8         GY8         GZ8     
           GZ7           0.1238322
           GX8          -0.0029422   0.2759091
           GY8           0.0000000  -0.0000000   0.0195550
           GZ8          -0.0017731  -0.1202942   0.0000000   0.1252001


 Atomic Masses
   1-  8   32.060000   12.011000   12.011000   12.011000    1.007940    1.007940    1.007940    1.007940

 Mass weighted Second Derivative Matrix
                             GX1         GY1         GZ1         GX2         GY2     
           GX1           0.0010973
           GY1          -0.0000000   0.0003033
           GZ1           0.0000953  -0.0000000   0.0134901
           GX2          -0.0025482  -0.0000000   0.0006182   0.0470855
           GY2          -0.0000000  -0.0016106  -0.0000000   0.0000000   0.0104575
           GZ2           0.0003330  -0.0000000  -0.0190202  -0.0024387   0.0000000
           GX3           0.0003941  -0.0000000  -0.0004115  -0.0200881   0.0000000
           GY3           0.0000000   0.0006124   0.0000000   0.0000000  -0.0051299
           GZ3          -0.0012781   0.0000000  -0.0022406  -0.0062603  -0.0000000
           GX4          -0.0001339   0.0000000  -0.0002115   0.0003564  -0.0000000
           GY4           0.0000000   0.0000957   0.0000000   0.0000000   0.0002850
           GZ4          -0.0001260  -0.0000000   0.0002846  -0.0011689  -0.0000000
           GX5           0.0000386  -0.0000000   0.0000866   0.0000592   0.0000000
           GY5          -0.0000000  -0.0003543  -0.0000000   0.0000000   0.0036391
           GZ5          -0.0001706   0.0000000  -0.0001064   0.0006746  -0.0000000
           GX6          -0.0000284  -0.0000000  -0.0000749   0.0004728  -0.0000000
           GY6          -0.0000000   0.0001325  -0.0000000   0.0000000  -0.0021428
           GZ6          -0.0001078   0.0000000   0.0000908   0.0006747  -0.0000000
           GX7           0.0003820   0.0000000   0.0001429  -0.0053690   0.0000000
           GY7          -0.0000000  -0.0002129  -0.0000000  -0.0000000   0.0005961
           GZ7           0.0000989  -0.0000000   0.0003048  -0.0053649   0.0000000
           GX8           0.0013171   0.0000000  -0.0006755  -0.0752172   0.0000000
           GY8           0.0000000   0.0018395  -0.0000000  -0.0000000  -0.0123839
           GZ8           0.0033393   0.0000000  -0.0039612   0.0345928  -0.0000000
                             GZ2         GX3         GY3         GZ3         GX4     
           GZ2           0.0530634
           GX3          -0.0058533   0.0538978
           GY3          -0.0000000  -0.0000000   0.0093872
           GZ3          -0.0099679  -0.0056292  -0.0000000   0.0675436
           GX4          -0.0025905  -0.0096137  -0.0000000   0.0021856   0.0553762
           GY4          -0.0000000  -0.0000000  -0.0036839   0.0000000  -0.0000000
           GZ4          -0.0031531   0.0032510   0.0000000  -0.0430508   0.0000467
           GX5          -0.0000099   0.0015801   0.0000000   0.0020703  -0.0762699
           GY5          -0.0000000   0.0000000   0.0018570  -0.0000000   0.0000000
           GZ5          -0.0014034  -0.0081859  -0.0000000  -0.0031113  -0.0389035
           GX6          -0.0004791   0.0000193  -0.0000000  -0.0007287  -0.0831478
           GY6           0.0000000   0.0000000   0.0011739   0.0000000  -0.0000000
           GZ6           0.0002820   0.0086963  -0.0000000  -0.0028788   0.0333997
           GX7           0.0041635  -0.0814471  -0.0000000   0.0349211   0.0007240
           GY7           0.0000000   0.0000000  -0.0117149  -0.0000000  -0.0000000
           GZ7           0.0021452   0.0348679  -0.0000000  -0.0338599   0.0081893
           GX8           0.0320138  -0.0058997  -0.0000000   0.0044435   0.0002458
           GY8          -0.0000000   0.0000000   0.0032510  -0.0000000   0.0000000
           GZ8          -0.0316351  -0.0046422   0.0000000   0.0023466  -0.0002562
                             GY4         GZ4         GX5         GY5         GZ5     
           GY4           0.0088242
           GZ4          -0.0000000   0.0686221
           GX5           0.0000000  -0.0405524   0.2693550
           GY5          -0.0101446   0.0000000  -0.0000000   0.0221764
           GZ5          -0.0000000  -0.0426293   0.1479916   0.0000000   0.1527858
           GX6           0.0000000   0.0348403  -0.0134713  -0.0000000   0.0133269
           GY6          -0.0099413  -0.0000000  -0.0000000   0.0030230  -0.0000000
           GZ6          -0.0000000  -0.0338499  -0.0156095   0.0000000   0.0093245
           GX7          -0.0000000  -0.0013959   0.0009652  -0.0000000   0.0001128
           GY7           0.0012321   0.0000000  -0.0000000  -0.0065676  -0.0000000
           GZ7          -0.0000000  -0.0027947  -0.0001070   0.0000000   0.0011925
           GX8          -0.0000000   0.0004696   0.0005592   0.0000000  -0.0002450
           GY8          -0.0004142   0.0000000  -0.0000000  -0.0005867   0.0000000
           GZ8           0.0000000   0.0002810   0.0001117  -0.0000000   0.0000387
                             GX6         GY6         GZ6         GX7         GY7     
           GX6           0.2972452
           GY6           0.0000000   0.0225109
           GZ6          -0.1294521   0.0000000   0.1208790
           GX7           0.0012695   0.0000000  -0.0008233   0.2958014
           GY7          -0.0000000   0.0112115   0.0000000  -0.0000000   0.0270873
           GZ7          -0.0002131   0.0000000  -0.0048821  -0.1274327   0.0000000
           GX8           0.0004451  -0.0000000  -0.0011521  -0.0030001   0.0000000
           GY8           0.0000000   0.0001695  -0.0000000  -0.0000000   0.0035983
           GZ8           0.0006610  -0.0000000  -0.0000187  -0.0027644   0.0000000
                             GZ7         GX8         GY8         GZ8     
           GZ7           0.1228567
           GX8          -0.0029190   0.2737356
           GY8           0.0000000  -0.0000000   0.0194010
           GZ8          -0.0017591  -0.1193466   0.0000000   0.1242139


 Mass Weighted 2nd Derivative Matrix Eigenvalues
   1- 10   -0.000001   -0.000000    0.000000    0.000000    0.000000    0.000001    0.000792    0.002925    0.007831    0.014778
  11- 20    0.030273    0.030942    0.034084    0.040221    0.046199    0.055548    0.063175    0.067890    0.080856    0.104687
  21- 24    0.367270    0.384610    0.393494    0.411620

 Mass Weighted 2nd Derivative Matrix Eigenvectors
                   1             2             3             4             5             6             7             8
         1    -0.0000000     0.0310231     0.0311099     0.0368974     0.9011508     0.0000000    -0.0000000    -0.3626731
         2     0.5156525     0.4204902    -0.3980738     0.3301964    -0.0142532    -0.4160710    -0.3306355     0.0000000
         3    -0.0000000    -0.0138666     0.4236087     0.5216543    -0.1550490    -0.0000000    -0.0000000    -0.0561602
         4     0.0000000     0.2370639     0.1920126    -0.0588933     0.2667122    -0.0000000     0.0000000     0.5099317
         5    -0.3554554     0.2573734    -0.2436528     0.2021065    -0.0087241    -0.3139403     0.5166643     0.0000000
         6    -0.0000000    -0.0085027     0.2592702     0.3192995    -0.0948825    -0.0000000    -0.0000000    -0.0461511
         7     0.0000000     0.3479191     0.2799396    -0.1003111     0.1219062    -0.0000000     0.0000000     0.4527242
         8     0.1284437     0.2573734    -0.2436528     0.2021065    -0.0087241     0.5070143     0.4583943    -0.0000000
         9    -0.0000000    -0.1684504     0.1324044     0.3790594     0.1140513     0.0000000     0.0000000     0.0575652
        10     0.0000000     0.5282202     0.4229491    -0.1676754    -0.1136146    -0.0000000    -0.0000000    -0.3504624
        11    -0.4736016     0.2573734    -0.2436528     0.2021065    -0.0087241     0.4085891    -0.4310849    -0.0000000
        12    -0.0000000    -0.1591719     0.1397638     0.3755927     0.1019312     0.0000000     0.0000000     0.0251260
        13     0.0000000     0.1768740     0.1414443    -0.0574863    -0.0640746    -0.0000000    -0.0000000    -0.2346443
        14    -0.0309407     0.0745575    -0.0705828     0.0585474    -0.0025272     0.2971907    -0.2229417    -0.0000000
        15    -0.0000000    -0.0809154     0.0128809     0.1218081     0.0749932     0.0000000     0.0000000     0.2008869
        16     0.0000000     0.1728007     0.1382135    -0.0559644    -0.0587538    -0.0000000    -0.0000000    -0.2112194
        17    -0.3906909     0.0745575    -0.0705828     0.0585474    -0.0025272    -0.0858546    -0.2600829     0.0000000
        18    -0.0000000    -0.0087543     0.0701170     0.0948472    -0.0192682    -0.0000000    -0.0000000    -0.1987760
        19     0.0000000     0.0808660     0.0652936    -0.0216157     0.0613371    -0.0000000     0.0000000     0.1909843
        20     0.2908317     0.0745575    -0.0705828     0.0585474    -0.0025272     0.3507954     0.2327818    -0.0000000
        21    -0.0000000    -0.0860856     0.0087801     0.1237398     0.0817469     0.0000000    -0.0000000     0.1308771
        22     0.0000000     0.0901691     0.0726725    -0.0250915     0.0491848    -0.0000000     0.0000000     0.1869873
        23    -0.3588564     0.0745575    -0.0705828     0.0585474    -0.0025272    -0.2925187     0.2371605     0.0000000
        24    -0.0000000     0.0343336     0.1042930     0.0787487    -0.0755523    -0.0000000    -0.0000000     0.0576080
                   9            10            11            12            13            14            15            16
         1     0.2146642    -0.0000000    -0.0000000     0.0319080    -0.0000000    -0.0000000     0.0636078     0.0039538
         2     0.0000000     0.0016566     0.0844674     0.0000000     0.0021841     0.0042232    -0.0000000    -0.0000000
         3     0.5191726    -0.0000000     0.0000000    -0.2702894    -0.0000000     0.0000000    -0.3490189     0.1844265
         4    -0.1323435     0.0000000     0.0000000    -0.4239261    -0.0000000     0.0000000    -0.2521533    -0.4468080
         5     0.0000000     0.0930775    -0.5731667    -0.0000000    -0.0301905    -0.0593735     0.0000000     0.0000000
         6     0.1671870    -0.0000000    -0.0000000     0.2055726     0.0000000    -0.0000000     0.4912124    -0.3581227
         7     0.0902450     0.0000000    -0.0000000     0.2503540     0.0000000    -0.0000000     0.2349619     0.3972318
         8    -0.0000000    -0.3822686     0.3030874     0.0000000     0.1877003    -0.2766944    -0.0000000    -0.0000000
         9    -0.4116857     0.0000000    -0.0000000     0.0789585     0.0000000     0.0000000    -0.0311331     0.0010027
        10    -0.2198913    -0.0000000    -0.0000000     0.2828130     0.0000000     0.0000000    -0.2200021    -0.0183054
        11    -0.0000000     0.0565031     0.0070392     0.0000000    -0.5031156     0.0048882     0.0000000    -0.0000000
        12    -0.4946454     0.0000000    -0.0000000     0.1743411     0.0000000     0.0000000    -0.0829130    -0.0186113
        13    -0.1541759     0.0000000     0.0000000    -0.2185338    -0.0000000    -0.0000000     0.0943251     0.0176214
        14     0.0000000     0.6042705    -0.1677415    -0.0000000     0.6203545    -0.2625313    -0.0000000     0.0000000
        15    -0.0151521    -0.0000000    -0.0000000     0.4882103     0.0000000     0.0000000    -0.2509962    -0.0318805
        16    -0.1396870    -0.0000000     0.0000000    -0.1550091    -0.0000000    -0.0000000     0.0740981     0.0456687
        17    -0.0000000    -0.4886911    -0.0163351    -0.0000000     0.5660026     0.4460121     0.0000000     0.0000000
        18    -0.2881013     0.0000000     0.0000000    -0.3835217    -0.0000000    -0.0000000     0.2290220     0.0873125
        19    -0.0085407     0.0000000     0.0000000    -0.0474103    -0.0000000    -0.0000000     0.1721163     0.3702509
        20     0.0000000     0.2759464    -0.1131404    -0.0000000    -0.0553197     0.7951036     0.0000000    -0.0000000
        21    -0.1762163     0.0000000     0.0000000    -0.2109412    -0.0000000    -0.0000000     0.1906890     0.4627575
        22    -0.0038699     0.0000000     0.0000000    -0.1361027     0.0000000    -0.0000000     0.1195193    -0.2215115
        23     0.0000000     0.4023727     0.7288545     0.0000000     0.0496797     0.1408336     0.0000000    -0.0000000
        24     0.1029690    -0.0000000    -0.0000000     0.0466009     0.0000000    -0.0000000     0.4977027    -0.2612906
                  17            18            19            20            21            22            23            24
         1     0.0209856     0.0365461    -0.0124495    -0.0034571     0.0006049     0.0002079    -0.0000523     0.0000375
         2     0.0000000     0.0000000    -0.0000000     0.0000000     0.0000000    -0.0000000     0.0000000    -0.0000000
         3     0.0137376     0.1359445    -0.0623501     0.0068663    -0.0040799    -0.0000624    -0.0010863    -0.0001794
         4     0.0200259    -0.1479492     0.1531645    -0.0642967    -0.2488921    -0.0043896     0.0009034    -0.0001851
         5     0.0000000    -0.0000000     0.0000000    -0.0000000     0.0000000    -0.0000000     0.0000000    -0.0000000
         6    -0.1126819    -0.4753997     0.3175718    -0.1492684     0.1338491     0.0027072     0.0103578     0.0019017
         7    -0.4287603     0.0520590    -0.1664678     0.0956728     0.0108766    -0.0358014    -0.2467321    -0.0345669
         8    -0.0000000    -0.0000000    -0.0000000     0.0000000    -0.0000000    -0.0000000    -0.0000000     0.0000000
         9     0.0481164    -0.2609005    -0.3091007     0.6557274     0.0063242    -0.0080752     0.1446990     0.0211518
        10     0.2988492    -0.0353071     0.0614975     0.0077417     0.0022623    -0.0398050     0.0468291    -0.3209316
        11    -0.0000000     0.0000000    -0.0000000     0.0000000    -0.0000000     0.0000000    -0.0000000     0.0000000
        12    -0.1621123     0.2525388    -0.1636097    -0.5921582    -0.0033789     0.2216743    -0.0452139    -0.0455902
        13    -0.0462002    -0.1348164    -0.3302076    -0.2145723     0.0061200    -0.5188084    -0.0060638     0.6007340
        14     0.0000000    -0.0000000     0.0000000    -0.0000000     0.0000000    -0.0000000    -0.0000000    -0.0000000
        15     0.1311936     0.2826746     0.4816835     0.1085277     0.0005969    -0.3400616    -0.0040621     0.4162967
        16    -0.0792258     0.1143375     0.2541849     0.2088027    -0.0143825     0.6561089    -0.1545482     0.5163271
        17     0.0000000     0.0000000     0.0000000     0.0000000     0.0000000     0.0000000     0.0000000    -0.0000000
        18    -0.3571113     0.3424350     0.4255023     0.1756673     0.0037027    -0.3372624     0.0808650    -0.2810015
        19     0.1613095    -0.0377071     0.1084878    -0.1598941    -0.0199618     0.1212970     0.8301168     0.1023664
        20     0.0000000     0.0000000     0.0000000     0.0000000     0.0000000     0.0000000    -0.0000000    -0.0000000
        21     0.5688481    -0.2036876     0.2165051    -0.1206875     0.0110978    -0.0619932    -0.4402969    -0.0546773
        22     0.2250870     0.3049678    -0.1286191     0.0501260     0.8386354     0.0163768     0.0177396     0.0081847
        23     0.0000000     0.0000000     0.0000000     0.0000000    -0.0000000     0.0000000    -0.0000000     0.0000000
        24     0.3620860     0.4818268    -0.2365083     0.0936028    -0.4646031    -0.0070227    -0.0095588    -0.0018095

 Imaginary Vibration  Wavenumber
        Nr             [1/cm] 
        1                5.83

   Low Vibration      Wavenumber
        Nr             [1/cm] 
        1                0.00
        2                0.00
        3                0.00
        4                0.00
        5                4.98

     Vibration        Wavenumber
        Nr             [1/cm] 
        1              144.63
        2              278.02
        3              454.90
        4              624.90
        5              894.40
        6              904.22
        7              949.02
        8             1030.92
        9             1104.89
       10             1211.53
       11             1292.03
       12             1339.38
       13             1461.70
       14             1663.21
       15             3115.26
       16             3187.95
       17             3224.56
       18             3297.99

 FREQUENCIES * CALCULATION OF NORMAL MODES FOR MP2


 Atomic Coordinates

  Nr  Atom  Charge       X              Y              Z

   1   S    16.00   -0.000153314    0.000000000    0.000078194
   2   C     6.00    0.000062117    0.000000000    3.095954960
   3   C     6.00    2.270739135    0.000000000    4.669695643
   4   C     6.00    2.139017859    0.000000000    7.229317048
   5   H     1.00    3.844698039    0.000000000    8.398398760
   6   H     1.00    0.308367183    0.000000000    8.198782631
   7   H     1.00    4.098070091    0.000000000    3.693429534
   8   H     1.00   -1.803196317    0.000000000    4.149337114

 Frequencies dumped to record   5400.2

 Gradient norm at reference geometry: 0.10962D-03
 
 Molecule is not in standard orientation!
 Symmetry information for normal modes not available!

 Normal Modes

                              1 A         2 A         3 A         4 A         5 A  
 Wavenumbers [cm-1]          144.63      278.02      454.90      624.90      894.40
 Intensities [km/mol]          0.09        3.32        0.04        9.03        4.94
 Intensities [relative]        0.29       10.20        0.12       27.77       15.19
           GX1             -0.00000    -0.06405     0.03791    -0.00000    -0.00000
           GY1             -0.05839     0.00000     0.00000     0.00029     0.01492
           GZ1             -0.00000    -0.00992     0.09169    -0.00000     0.00000
           GX2              0.00000     0.14714    -0.03819     0.00000     0.00000
           GY2              0.14908     0.00000     0.00000     0.02686    -0.16538
           GZ2             -0.00000    -0.01332     0.04824    -0.00000    -0.00000
           GX3              0.00000     0.13063     0.02604     0.00000    -0.00000
           GY3              0.13227    -0.00000    -0.00000    -0.11030     0.08745
           GZ3              0.00000     0.01661    -0.11879     0.00000    -0.00000
           GX4             -0.00000    -0.10112    -0.06345    -0.00000    -0.00000
           GY4             -0.12439    -0.00000    -0.00000     0.01630     0.00203
           GZ4              0.00000     0.00725    -0.14273     0.00000    -0.00000
           GX5             -0.00000    -0.23372    -0.15357     0.00000     0.00000
           GY5             -0.22206    -0.00000     0.00000     0.60189    -0.16708
           GZ5              0.00000     0.20009    -0.01509    -0.00000    -0.00000
           GX6             -0.00000    -0.21039    -0.13914    -0.00000     0.00000
           GY6             -0.25906     0.00000    -0.00000    -0.48676    -0.01627
           GZ6             -0.00000    -0.19799    -0.28696     0.00000     0.00000
           GX7              0.00000     0.19023    -0.00851     0.00000     0.00000
           GY7              0.23186    -0.00000     0.00000     0.27486    -0.11269
           GZ7             -0.00000     0.13036    -0.17552     0.00000     0.00000
           GX8              0.00000     0.18625    -0.00385     0.00000     0.00000
           GY8              0.23622     0.00000     0.00000     0.40078     0.72598
           GZ8             -0.00000     0.05738     0.10256    -0.00000    -0.00000

                              6 A         7 A         8 A         9 A        10 A  
 Wavenumbers [cm-1]          904.22      949.02     1030.92     1104.89     1211.53
 Intensities [km/mol]          2.18       30.20       23.12        6.57       16.66
 Intensities [relative]        6.70       92.91       71.13       20.22       51.26
           GX1              0.00564    -0.00000    -0.00000     0.01123     0.00070
           GY1              0.00000     0.00039     0.00075    -0.00000    -0.00000
           GZ1             -0.04774    -0.00000     0.00000    -0.06164     0.03257
           GX2             -0.12232    -0.00000     0.00000    -0.07276    -0.12892
           GY2             -0.00000    -0.00871    -0.01713     0.00000     0.00000
           GZ2              0.05932     0.00000    -0.00000     0.14174    -0.10333
           GX3              0.07224     0.00000    -0.00000     0.06780     0.11462
           GY3              0.00000     0.05416    -0.07984    -0.00000    -0.00000
           GZ3              0.02278     0.00000     0.00000    -0.00898     0.00029
           GX4              0.08160     0.00000     0.00000    -0.06348    -0.00528
           GY4              0.00000    -0.14517     0.00141     0.00000    -0.00000
           GZ4              0.05030     0.00000     0.00000    -0.02392    -0.00537
           GX5             -0.21767    -0.00000    -0.00000     0.09395     0.01755
           GY5             -0.00000     0.61791    -0.26150    -0.00000     0.00000
           GZ5              0.48628     0.00000     0.00000    -0.25001    -0.03175
           GX6             -0.15440    -0.00000    -0.00000     0.07381     0.04549
           GY6             -0.00000     0.56377     0.44425     0.00000     0.00000
           GZ6             -0.38201    -0.00000    -0.00000     0.22812     0.08697
           GX7             -0.04722    -0.00000    -0.00000     0.17144     0.36879
           GY7             -0.00000    -0.05510     0.79197     0.00000    -0.00000
           GZ7             -0.21011    -0.00000    -0.00000     0.18994     0.46093
           GX8             -0.13557     0.00000    -0.00000     0.11905    -0.22064
           GY8              0.00000     0.04948     0.14028     0.00000    -0.00000
           GZ8              0.04642     0.00000    -0.00000     0.49574    -0.26026

                             11 A        12 A        13 A        14 A        15 A  
 Wavenumbers [cm-1]         1292.03     1339.38     1461.70     1663.21     3115.26
 Intensities [km/mol]          6.00        3.80       32.50       10.53       17.37
 Intensities [relative]       18.46       11.71      100.00       32.40       53.44
           GX1              0.00371     0.00645    -0.00220    -0.00061     0.00011
           GY1              0.00000     0.00000    -0.00000     0.00000     0.00000
           GZ1              0.00243     0.02401    -0.01101     0.00121    -0.00072
           GX2              0.00578    -0.04269     0.04419    -0.01855    -0.07182
           GY2              0.00000    -0.00000     0.00000    -0.00000     0.00000
           GZ2             -0.03251    -0.13717     0.09163    -0.04307     0.03862
           GX3             -0.12372     0.01502    -0.04803     0.02761     0.00314
           GY3             -0.00000    -0.00000    -0.00000     0.00000    -0.00000
           GZ3              0.01388    -0.07528    -0.08919     0.18921     0.00182
           GX4              0.08623    -0.01019     0.01774     0.00223     0.00065
           GY4             -0.00000     0.00000    -0.00000     0.00000    -0.00000
           GZ4             -0.04678     0.07287    -0.04721    -0.17086    -0.00097
           GX5             -0.04602    -0.13428    -0.32890    -0.21373     0.00610
           GY5              0.00000    -0.00000     0.00000    -0.00000     0.00000
           GZ5              0.13068     0.28156     0.47978     0.10810     0.00059
           GX6             -0.07891     0.11389     0.25318     0.20798    -0.01433
           GY6              0.00000     0.00000     0.00000     0.00000     0.00000
           GZ6             -0.35570     0.34108     0.42382     0.17497     0.00369
           GX7              0.16067    -0.03756     0.10806    -0.15926    -0.01988
           GY7              0.00000     0.00000     0.00000     0.00000     0.00000
           GZ7              0.56660    -0.20288     0.21565    -0.12021     0.01105
           GX8              0.22420     0.30376    -0.12811     0.04993     0.83533
           GY8              0.00000     0.00000     0.00000     0.00000    -0.00000
           GZ8              0.36066     0.47993    -0.23557     0.09323    -0.46277

                             16 A        17 A        18 A  
 Wavenumbers [cm-1]         3187.95     3224.56     3297.99
 Intensities [km/mol]          2.20        2.17        4.31
 Intensities [relative]        6.77        6.67       13.25
           GX1              0.00004    -0.00001     0.00001
           GY1             -0.00000     0.00000    -0.00000
           GZ1             -0.00001    -0.00019    -0.00003
           GX2             -0.00127     0.00026    -0.00005
           GY2             -0.00000     0.00000    -0.00000
           GZ2              0.00078     0.00299     0.00055
           GX3             -0.01033    -0.07119    -0.00997
           GY3             -0.00000    -0.00000     0.00000
           GZ3             -0.00233     0.04175     0.00610
           GX4             -0.01149     0.01351    -0.09260
           GY4              0.00000    -0.00000     0.00000
           GZ4              0.06396    -0.01305    -0.01315
           GX5             -0.51676    -0.00604     0.59836
           GY5             -0.00000    -0.00000    -0.00000
           GZ5             -0.33872    -0.00405     0.41465
           GX6              0.65352    -0.15394     0.51429
           GY6              0.00000     0.00000    -0.00000
           GZ6             -0.33593     0.08055    -0.27989
           GX7              0.12082     0.82684     0.10196
           GY7              0.00000    -0.00000    -0.00000
           GZ7             -0.06175    -0.43856    -0.05446
           GX8              0.01631     0.01767     0.00815
           GY8              0.00000    -0.00000     0.00000
           GZ8             -0.00699    -0.00952    -0.00180


 Normal Modes of imaginary frequencies

                                  1
 Wavenumbers [cm-1]            5.83
 Intensities [km/mol]          1.50
 Intensities [relative]        4.61
           GX1             -0.00000
           GY1              0.09107
           GZ1             -0.00000
           GX2              0.00000
           GY2             -0.10256
           GZ2             -0.00000
           GX3              0.00000
           GY3              0.03706
           GZ3             -0.00000
           GX4              0.00000
           GY4             -0.13665
           GZ4             -0.00000
           GX5              0.00000
           GY5             -0.03082
           GZ5             -0.00000
           GX6              0.00000
           GY6             -0.38915
           GZ6             -0.00000
           GX7              0.00000
           GY7              0.28968
           GZ7             -0.00000
           GX8              0.00000
           GY8             -0.35744
           GZ8             -0.00000


 Normal Modes of low/zero frequencies

                                  1           2           3           4           5
 Wavenumbers [cm-1]            0.00        0.00        0.00        0.00        4.98
 Intensities [km/mol]          0.00        0.00        0.00        0.00        0.00
 Intensities [relative]        0.00        0.00        0.00        0.00        0.00
           GX1              0.00548     0.00549     0.00652     0.15915     0.00000
           GY1              0.07426    -0.07030     0.05832    -0.00252    -0.07348
           GZ1             -0.00245     0.07481     0.09213    -0.02738    -0.00000
           GX2              0.06840     0.05540    -0.01699     0.07696    -0.00000
           GY2              0.07426    -0.07030     0.05832    -0.00252    -0.09059
           GZ2             -0.00245     0.07481     0.09213    -0.02738    -0.00000
           GX3              0.10039     0.08077    -0.02894     0.03518    -0.00000
           GY3              0.07426    -0.07030     0.05832    -0.00252     0.14630
           GZ3             -0.04861     0.03820     0.10937     0.03291     0.00000
           GX4              0.15241     0.12204    -0.04838    -0.03278    -0.00000
           GY4              0.07426    -0.07030     0.05832    -0.00252     0.11790
           GZ4             -0.04593     0.04033     0.10837     0.02941     0.00000
           GX5              0.17618     0.14089    -0.05726    -0.06382    -0.00000
           GY5              0.07426    -0.07030     0.05832    -0.00252     0.29602
           GZ5             -0.08060     0.01283     0.12133     0.07470     0.00000
           GX6              0.17212     0.13767    -0.05574    -0.05852    -0.00000
           GY6              0.07426    -0.07030     0.05832    -0.00252    -0.08552
           GZ6             -0.00872     0.06984     0.09447    -0.01919    -0.00000
           GX7              0.08055     0.06504    -0.02153     0.06109    -0.00000
           GY7              0.07426    -0.07030     0.05832    -0.00252     0.34941
           GZ7             -0.08575     0.00875     0.12325     0.08142     0.00000
           GX8              0.08981     0.07239    -0.02499     0.04899    -0.00000
           GY8              0.07426    -0.07030     0.05832    -0.00252    -0.29136
           GZ8              0.03420     0.10388     0.07844    -0.07525    -0.00000


 Zero point energy:  0.05964132 [H]    13089.76 [1/CM]      156.59 [KJ/MOL]
 Frequency information read from record  5400.2

 Dump information in style MOLDEN to mp2.molden                                                                      

 Molecular orbitals read from record     2100.2  Type=RHF/CANONICAL (state 1.1)
 Occupation numbers read from record     2100.2  Type=RHF/RHF (state 1.1)
 Orbital energies read from record       2100.2  Type=RHF/CANONICAL (state 1.1)
 Redundancy group numbers read from rec  2100.2  Type=RHF/RHF (state 1.1)
 
 DUMP ORBITAL  1.1 AS ORBITAL    1  occ=    2.0000  eig=  -91.9350  GROUP=   2
 DUMP ORBITAL  2.1 AS ORBITAL    2  occ=    2.0000  eig=  -11.3252  GROUP=   2
 DUMP ORBITAL  3.1 AS ORBITAL    3  occ=    2.0000  eig=  -11.2822  GROUP=   2
 DUMP ORBITAL  4.1 AS ORBITAL    4  occ=    2.0000  eig=  -11.2695  GROUP=   2
 DUMP ORBITAL  5.1 AS ORBITAL    5  occ=    2.0000  eig=   -8.9378  GROUP=   2
 DUMP ORBITAL  6.1 AS ORBITAL    6  occ=    2.0000  eig=   -6.6194  GROUP=   2
 DUMP ORBITAL  1.2 AS ORBITAL    7  occ=    2.0000  eig=   -6.6181  GROUP=   2
 DUMP ORBITAL  7.1 AS ORBITAL    8  occ=    2.0000  eig=   -6.6155  GROUP=   2
 DUMP ORBITAL  8.1 AS ORBITAL    9  occ=    2.0000  eig=   -1.1147  GROUP=   2
 DUMP ORBITAL  9.1 AS ORBITAL   10  occ=    2.0000  eig=   -1.0146  GROUP=   2
 DUMP ORBITAL 10.1 AS ORBITAL   11  occ=    2.0000  eig=   -0.8457  GROUP=   2
 DUMP ORBITAL 11.1 AS ORBITAL   12  occ=    2.0000  eig=   -0.7677  GROUP=   2
 DUMP ORBITAL 12.1 AS ORBITAL   13  occ=    2.0000  eig=   -0.6386  GROUP=   2
 DUMP ORBITAL 13.1 AS ORBITAL   14  occ=    2.0000  eig=   -0.6360  GROUP=   2
 DUMP ORBITAL 14.1 AS ORBITAL   15  occ=    2.0000  eig=   -0.5413  GROUP=   2
 DUMP ORBITAL 15.1 AS ORBITAL   16  occ=    2.0000  eig=   -0.5140  GROUP=   2
 DUMP ORBITAL  2.2 AS ORBITAL   17  occ=    2.0000  eig=   -0.4629  GROUP=   2
 DUMP ORBITAL  3.2 AS ORBITAL   18  occ=    2.0000  eig=   -0.3510  GROUP=   2
 DUMP ORBITAL 16.1 AS ORBITAL   19  occ=    2.0000  eig=   -0.3396  GROUP=   2

 Total charge:      38.000000
 Frequency information read from record  5400.2

 **********************************************************************************************************************************

       OPTG(MP2)        MP2             HF-SCF  
   -513.95626952   -513.95626953   -513.42839090
 **********************************************************************************************************************************
 Variable memory released
