
 Primary working directories    : /home/jgv/SOURCE/sharcdyn/initialconditions/test_MOLPRO
 Secondary working directories  : /home/jgv/SOURCE/sharcdyn/initialconditions/test_MOLPRO
 Wavefunction directory         : /home/jgv/SOURCE/sharcdyn/initialconditions/test_MOLPRO/
 Main file repository           : /home/jgv/SOURCE/sharcdyn/initialconditions/test_MOLPRO/

 SHA1      : 0c4b58140d9e4d5b90f2e1023eb774a596b0bdf3
 ARCHNAME  : Linux/x86_64
 FC        : /opt/intel/composer_xe_2013.2.146/bin/intel64/ifort
 FCVERSION : 13.1.0
 BLASLIB   : -L/opt/intel/composer_xe_2013.2.146/mkl/lib/intel64 -lmkl_intel_ilp64 -lmkl_sequential -lmkl_core
 id        : uma

 Nodes     nprocs
 espa         1

 Using customized tuning parameters: mindgm=1; mindgv=20; mindgc=4; mindgr=1; noblas=0; minvec=7
 default implementation of scratch files=df  

 basis=cc-pvdz
 
 geom={
     8
  MP2/CC-PVDZ  ENERGY=-513.95626949
  S         -0.2677757086       -0.3354779073        0.0745684680
  C          0.0438582083        0.0329083609        1.6402176884
  C          1.3210681910       -0.2003718346        2.3123151534
  C          1.5141323805        0.1294741318        3.6136194471
  H          2.4720169811       -0.0478776501        4.1120370609
  H          0.7100879444        0.5849264794        4.2032959563
  H          2.1228750208       -0.6556475059        1.7192710519
  H         -0.7386270175        0.4920659257        2.2713141739
 }
 
 {hf}
 {mp2}
 {optg}
 
 {freq
  print hessian=1
 }

 Variables initialized (771), CPU time= 0.01 sec
 Commands  initialized (545), CPU time= 0.01 sec, 516 directives.
 Default parameters read. Elapsed time= 0.23 sec

 Checking input...
 Passed
1


                                         ***  PROGRAM SYSTEM MOLPRO  ***
                         Copyright, University College Cardiff Consultants Limited, 2008

                                    Version 2012.1 linked 26 Mar 2013 19:49:59


 **********************************************************************************************************************************
 LABEL *                                                                                 
 Linux-3.13.0-96-generic/espa(x86_64) 64 bit serial version                              DATE: 03-Nov-16          TIME: 07:19:09  
 **********************************************************************************************************************************

 SHA1:             0c4b58140d9e4d5b90f2e1023eb774a596b0bdf3
 **********************************************************************************************************************************

 Variable memory set to    8000000 words,  buffer space   230000 words

 SETTING BASIS          =    CC-PVDZ

Geometry recognized as XYZ



 Recomputing integrals since basis changed


 Using spherical harmonics

 Library entry S      S cc-pVDZ              selected for orbital group  1
 Library entry S      P cc-pVDZ              selected for orbital group  1
 Library entry S      D cc-pVDZ              selected for orbital group  1
 Library entry C      S cc-pVDZ              selected for orbital group  2
 Library entry C      P cc-pVDZ              selected for orbital group  2
 Library entry C      D cc-pVDZ              selected for orbital group  2
 Library entry H      S cc-pVDZ              selected for orbital group  3
 Library entry H      P cc-pVDZ              selected for orbital group  3

1PROGRAM * SEWARD (Integral evaluation for generally contracted gaussian basis sets)     Author: Roland Lindh, 1990

 Geometry written to block  1 of record 700


 Point group  C1  



 ATOMIC COORDINATES

 NR  ATOM    CHARGE       X              Y              Z

   1  S      16.00   -0.506022754   -0.633961368    0.140913983
   2  C       6.00    0.082880002    0.062187790    3.099562227
   3  C       6.00    2.496457082   -0.378647892    4.369642369
   4  C       6.00    2.861295526    0.244670650    6.828751098
   5  H       1.00    4.671435087   -0.090475647    7.770623887
   6  H       1.00    1.341871744    1.105350853    7.943078207
   7  H       1.00    4.011652401   -1.238994225    3.248951434
   8  H       1.00   -1.395802776    0.929869838    4.292161747

 Bond lengths in Bohr (Angstrom)

 1-2  3.095969887  2-3  2.762751162  2-8  2.088460800  3-4  2.562976558  3-7  2.071704815
     ( 1.638316704)     ( 1.461984949)     ( 1.105165857)     ( 1.356268781)     ( 1.096298972)

 4-5  2.067861847  4-6  2.071507650
     ( 1.094265361)     ( 1.096194637)

 Bond angles

  1-2-3  124.72381841   1-2-8  120.29525437   2-3-4  121.77854454   2-3-7  117.16282873

  3-2-8  114.98092644   3-4-5  121.48089130   3-4-6  120.84818370   4-3-7  121.05862665

  5-4-6  117.67092287

 NUCLEAR CHARGE:                   38
 NUMBER OF PRIMITIVE AOS:         151
 NUMBER OF SYMMETRY AOS:          147
 NUMBER OF CONTRACTIONS:           80   (  80A   )
 NUMBER OF CORE ORBITALS:           8   (   8A   )
 NUMBER OF VALENCE ORBITALS:       20   (  20A   )


 NUCLEAR REPULSION ENERGY  130.57328427


 Eigenvalues of metric

         1 0.245E-02 0.378E-02 0.656E-02 0.144E-01 0.184E-01 0.210E-01 0.295E-01 0.332E-01


 Contracted 2-electron integrals neglected if value below      1.0D-11
 AO integral compression algorithm  1   Integral accuracy      1.0D-11

     24.642 MB (compressed) written to integral file ( 50.9%)


 NUMBER OF SORTED TWO-ELECTRON INTEGRALS:    5250420.     BUFFER LENGTH:  32768
 NUMBER OF SEGMENTS:   1  SEGMENT LENGTH:    5250420      RECORD LENGTH: 524288

 Memory used in sort:       5.81 MW

 SORT1 READ     6055227. AND WROTE     5128195. INTEGRALS IN     15 RECORDS. CPU TIME:     0.14 SEC, REAL TIME:     0.23 SEC
 SORT2 READ     5128195. AND WROTE     5250420. INTEGRALS IN     94 RECORDS. CPU TIME:     0.22 SEC, REAL TIME:     0.29 SEC

 FILE SIZES:   FILE 1:    32.5 MBYTE,  FILE 4:    62.9 MBYTE,   TOTAL:     95.5 MBYTE

 OPERATOR DM      FOR CENTER  0  COORDINATES:    0.000000    0.000000    0.000000


 **********************************************************************************************************************************
 DATASETS  * FILE   NREC   LENGTH (MB)   RECORD NAMES
              1      19       29.11       500      610      700      900      950      970     1000      129      960     1100   
                                          VAR    BASINP    GEOM    SYMINP    ZMAT    AOBASIS   BASIS     P2S    ABASIS      S 
                                         1400     1410     1200     1210     1080     1600     1650     1300     1700   
                                           T        V       H0       H01     AOSYM     SMH    MOLCAS    ERIS     OPER   

 PROGRAMS   *        TOTAL       INT
 CPU TIMES  *         1.85      1.67
 REAL TIME  *         3.24 SEC
 DISK USED  *        95.88 MB      
 **********************************************************************************************************************************

1PROGRAM * RHF-SCF (CLOSED SHELL)       Authors: W. Meyer, H.-J. Werner


 NUMBER OF ELECTRONS:      19+   19-    SPACE SYMMETRY=1    SPIN SYMMETRY: Singlet 
 CONVERGENCE THRESHOLDS:    1.00E-06 (Density)    1.00E-07 (Energy)
 MAX. NUMBER OF ITERATIONS:       60
 INTERPOLATION TYPE:            DIIS
 INTERPOLATION STEPS:              2 (START)      1 (STEP)
 LEVEL SHIFTS:                  0.00 (CLOSED)  0.00 (OPEN) 



 Orbital guess generated from atomic densities. Full valence occupancy:   28

 Molecular orbital dump at record        2100.2

 ITERATION    DDIFF          GRAD             ENERGY        2-EL.EN.            DIPOLE MOMENTS         DIIS   ORB.
    1      0.000D+00      0.000D+00      -513.38712569    641.096101    0.56894    0.34616    1.78217    0    start
    2      0.000D+00      0.459D-02      -513.42054118    640.627626    0.42845    0.14099    0.94785    1    diag
    3      0.130D-01      0.215D-02      -513.42691485    640.571268    0.44796    0.24553    1.31442    2    diag
    4      0.503D-02      0.920D-03      -513.42829948    640.748273    0.43764    0.22689    1.24131    3    diag
    5      0.219D-02      0.171D-03      -513.42836792    640.674640    0.44108    0.22566    1.24115    4    diag
    6      0.422D-03      0.769D-04      -513.42838653    640.682896    0.44095    0.22754    1.24719    5    diag
    7      0.225D-03      0.282D-04      -513.42839024    640.687079    0.44184    0.22763    1.24852    6    diag
    8      0.111D-03      0.101D-04      -513.42839074    640.687531    0.44265    0.22809    1.25093    7    diag
    9      0.435D-04      0.437D-05      -513.42839080    640.687440    0.44277    0.22814    1.25124    8    diag
   10      0.162D-04      0.147D-05      -513.42839082    640.688042    0.44299    0.22821    1.25171    9    orth
   11      0.783D-05      0.450D-06      -513.42839082    640.687975    0.44305    0.22823    1.25184    9    diag
   12      0.235D-05      0.126D-06      -513.42839082    640.688012    0.44306    0.22824    1.25187    9    diag
   13      0.455D-06      0.443D-07      -513.42839082    640.688001    0.44306    0.22824    1.25187    0    orth

 Final occupancy:  19

 !RHF STATE 1.1 Energy               -513.428390817645
 Nuclear energy                       130.57328427
 One-electron energy                 -964.34567565
 Two-electron energy                  320.34400057
 Virial quotient                       -1.00060841
 !RHF STATE 1.1 Dipole moment           0.44305714     0.22823677     1.25187375
 Dipole moment /Debye                   1.12606516     0.58008202     3.18173729

 Orbital energies:

         1.1          2.1          3.1          4.1          5.1          6.1          7.1          8.1          9.1         10.1
    -91.935002   -11.325262   -11.282178   -11.269504    -8.937799    -6.619376    -6.618066    -6.615519    -1.114736    -1.014555

        11.1         12.1         13.1         14.1         15.1         16.1         17.1         18.1         19.1         20.1
     -0.845683    -0.767719    -0.638587    -0.636033    -0.541308    -0.514042    -0.462890    -0.350965    -0.339614     0.035942

        21.1
      0.182357

 HOMO     19.1    -0.339614 =      -9.2414eV
 LUMO     20.1     0.035942 =       0.9780eV
 LUMO-HOMO         0.375556 =      10.2194eV


 **********************************************************************************************************************************
 DATASETS  * FILE   NREC   LENGTH (MB)   RECORD NAMES
              1      19       29.11       500      610      700      900      950      970     1000      129      960     1100   
                                          VAR    BASINP    GEOM    SYMINP    ZMAT    AOBASIS   BASIS     P2S    ABASIS      S 
                                         1400     1410     1200     1210     1080     1600     1650     1300     1700   
                                           T        V       H0       H01     AOSYM     SMH    MOLCAS    ERIS     OPER   

              2       4        0.55       700     1000      520     2100   
                                         GEOM     BASIS   MCVARS     RHF  

 PROGRAMS   *        TOTAL        HF       INT
 CPU TIMES  *         2.95      1.09      1.67
 REAL TIME  *         4.62 SEC
 DISK USED  *        95.88 MB      
 **********************************************************************************************************************************


1PROGRAM * MP2 (Closed-shell)     Authors: C. Hampel, H.-J. Werner, 1991, M. Deegan, P.J. Knowles, 1992


 Convergence thresholds:  THRVAR = 1.00D-12  THRDEN = 1.00D-08

 Number of core orbitals:           8 (   8 )
 Number of closed-shell orbitals:  11 (  11 )
 Number of external orbitals:      61 (  61 )

 Molecular orbitals read from record     2100.2  Type=RHF/CANONICAL (state 1.1)

 Number of N-1 electron functions:              11
 Number of N-2 electron functions:              66
 Number of singly external CSFs:               671
 Number of doubly external CSFs:            225456
 Total number of CSFs:                      226128

 Length of J-op  integral file:               0.00 MB
 Length of K-op  integral file:               0.48 MB

 Integral transformation finished. Total CPU:   0.35 sec, npass=  1  Memory used:   0.88 MW

 Memory needed for MP2:                      0.03 MW

 SCS-MP2 correlation energy:           -0.520016027193   (PS=  1.200000  PT=  0.333333)
 SCS-MP2 total energy:               -513.948406844838


  Reference energy                   -513.428390817645
  MP2 singlet pair energy              -0.331543017728
  MP2 triplet pair energy              -0.196335652371
  MP2 correlation energy               -0.527878670099

 !MP2 total energy                   -513.956269487744

 KEXT needed  1 integral passes. Memory used:   0.95 MW  CPU time:      1.77 sec


 Starting Coupled-perturbed Hartree-Fock, convergence threshold= 1.0D-06

 ITER   MIC  DIIS      VAR         VARC       CPU
   1     0     1    0.77D-01    0.25D-02     0.07
   2     7     2    0.69D-03    0.60D-03     0.16
   3     3     3    0.51D-04    0.22D-04     0.24
   4     4     4    0.27D-05    0.81D-06     0.32
   5     2     5    0.36D-06    0.16D-07     0.40

 CPHF convergence reached in  5 macroiterations and   16 microiterations.   Accuracy: 3.5937D-07

 CPHF solution written to record  4101.2

 Dipole moments (unrelaxed):            0.43603323     0.21903454     1.21364589
 Orbital relaxation contribution:      -0.09361479    -0.07318990    -0.34664769
 !!MP2 STATE 1.1 Dipole moment          0.34241844     0.14584464     0.86699821
 Dipole moment /Debye                   0.87028385     0.37067581     2.20354530
 
 CPU-time for density and lagrangian:                  0.13 sec
 CPU-time for coupled-perturbed hartree-fock:          0.40 sec

 MP2 Gradient info saved on record         5200.1


 **********************************************************************************************************************************
 DATASETS  * FILE   NREC   LENGTH (MB)   RECORD NAMES
              1      21       36.47       500      610      700      900      950      970     1000      129      960     1100   
                                          VAR    BASINP    GEOM    SYMINP    ZMAT    AOBASIS   BASIS     P2S    ABASIS      S 
                                         1400     1410     1200     1210     1080     1600     1650     1300     1700     1380   
                                           T        V       H0       H01     AOSYM     SMH    MOLCAS    ERIS     OPER     JKOP   
                                         5200   
                                          MP2  

              2       6        0.78       700     1000      520     2100     4100     4101   
                                         GEOM     BASIS   MCVARS     RHF     CPHF     CPHF   

 PROGRAMS   *        TOTAL       MP2        HF       INT
 CPU TIMES  *         5.78      2.83      1.09      1.67
 REAL TIME  *         7.74 SEC
 DISK USED  *        95.88 MB      
 **********************************************************************************************************************************


 PROGRAM * OPT (Geometry optimization)     Authors: F. Eckert and H.-J. Werner


 BFGS update of hessian

 *** Long output written to logfile /home/jgv/docs/storage/SOURCE/sharcdyn/initialconditions/test_MOLPRO/mp2.log ***


 Geometry optimization using default procedure for command MP2

 Geometry written to block  1 of record 700

 Making model hessian for cartesian coordinates

 Quadratic Steepest Descent - Minimum Search

 ITER.   ENERGY(OLD)    ENERGY(NEW)      DE          GRADMAX     GRADNORM    GRADRMS     STEPMAX     STEPLEN     STEPRMS   CPU-time
   1  -513.95626949  -513.95626938     0.00000011  0.00005934  0.00011835  0.00000564  0.00472985  0.00620716  0.00170272     12.22

 END OF GEOMETRY OPTIMIZATION.

 Current geometry (xyz format, in Angstrom)

    8
 MP2/CC-PVDZ  ENERGY=-513.95626938
 S         -0.2678849416       -0.3355608063        0.0746508936
 C          0.0439715390        0.0331455677        1.6401285575
 C          1.3210051626       -0.2005751814        2.3123745045
 C          1.5140913735        0.1293803657        3.6136654825
 H          2.4724828378       -0.0464926334        4.1116493816
 H          0.7095949884        0.5834678600        4.2037832214
 H          2.1226869653       -0.6562887047        1.7194330387
 H         -0.7383119250        0.4929235324        2.2709539201

 **********************************************************************************************************************************

 Geometry written to block  1 of record 700


 **********************************************************************************************************************************
 DATASETS  * FILE   NREC   LENGTH (MB)   RECORD NAMES
              1      21       36.47       500      610      700      900      950      970     1000      129      960     1100   
                                          VAR    BASINP    GEOM    SYMINP    ZMAT    AOBASIS   BASIS     P2S    ABASIS      S 
                                         1400     1410     1200     1210     1080     1600     1650     1300     1700     1380   
                                           T        V       H0       H01     AOSYM     SMH    MOLCAS    ERIS     OPER     JKOP   
                                         5200   
                                          MP2  

              2       7        0.81       700     1000      520     2100     4100     4101     9001   
                                         GEOM     BASIS   MCVARS     RHF     CPHF     CPHF    DEN_MP2    

 PROGRAMS   *        TOTAL      OPTG       MP2        HF       INT
 CPU TIMES  *        18.01     12.22      2.83      1.09      1.67
 REAL TIME  *        20.56 SEC
 DISK USED  *        96.34 MB      
 **********************************************************************************************************************************


 PROGRAM * HESSIAN

 Computing numerical hessian using default procedure for command MP2

 Using no symmetry in wavefunction calculations

 Running default procedure: HF-SCF000  MP2
 

 Numerically approximating hessian using central gradient differences

 Task list generated. Total number of displacements:     48

    5 tasks completed, CPU=1m 4s Elapsed=1m 4s
   10 tasks completed, CPU=2m 8s Elapsed=2m 8s
   15 tasks completed, CPU=3m 13s Elapsed=3m 13s
   20 tasks completed, CPU=4m 17s Elapsed=4m 18s
   25 tasks completed, CPU=5m 21s Elapsed=5m 22s
   30 tasks completed, CPU=6m 25s Elapsed=6m 25s
   35 tasks completed, CPU=7m 29s Elapsed=7m 29s
   40 tasks completed, CPU=8m 32s Elapsed=8m 33s
   45 tasks completed, CPU=9m 36s Elapsed=9m 38s

 Numerical MP2 hessian completed. CPU-time:   615.73 sec, Elapsed:   616.92 sec

 MP2 hessian saved to record  5300.2

 FREQUENCIES * CALCULATION OF HARMONIC VIBRATIONAL SPECTRA FOR MP2


 Permanent Dipole Moment [debye]
   1-  3    0.870359    0.370827    2.203553

 Dipole Moment Norm    2.3980580 [debye]

 Dipole Moment Derivatives [debye/ang]
                   1             2             3             4             5             6             7             8
         1    -1.0306479    -0.0294242    -0.5799614     1.6773676    -0.4527701     0.9981297    -0.6269939    -0.2549433
         2     0.0329144    -0.6138018     0.0005800    -0.2180936    -0.2923472     0.5308739    -0.1632091    -0.2193796
         3    -0.3744866    -0.0700512    -1.2552681     1.7708318     0.2667230     2.3466623    -0.9016617    -0.0177887
                   9            10            11            12            13            14            15            16
         1    -1.2019973     0.1490067    -0.3261796     0.2471623    -0.0745934     0.1752126    -0.1502240    -0.1181435
         2     0.0867106    -0.5430146    -0.7615667     0.2635786     0.1422143     0.5003629    -0.0694204     0.3235469
         3    -1.3744253    -0.4658591     0.5076683     0.1174758    -0.2576141    -0.0320694     0.1725811     0.2168243
                  17            18            19            20            21            22            23            24
         1     0.2690503     0.0391794     0.0150921     0.2727635     0.2231540     0.0087728     0.3463204     0.4246372
         2     0.4843953    -0.1313902     0.1763413     0.4825379    -0.2291430     0.2493727     0.4198154    -0.4518445
         3    -0.1920899     0.2474312    -0.0937582    -0.1204394     0.1111464     0.1053331    -0.3421072    -0.3654352

 Projecting out rotations and translations

 Force Constants (Second Derivatives of the Energy) in [a.u.]
                             GX1         GY1         GZ1         GX2         GY2     
           GX1           0.0481675
           GY1           0.0102338   0.0337830
           GZ1           0.0770930   0.0907424   0.3954297
           GX2          -0.0566078  -0.0065212  -0.0496888   0.5150040
           GY2          -0.0080625  -0.0526429  -0.0783333  -0.1257887   0.2101558
           GZ2          -0.0547867  -0.0766167  -0.3455821   0.0254543   0.1363925
           GX3           0.0004006  -0.0010269  -0.0164593  -0.2451829   0.0464348
           GY3          -0.0057190   0.0112717  -0.0089180   0.0450701  -0.0751481
           GZ3          -0.0319225  -0.0036050  -0.0358887  -0.0588755   0.0078566
           GX4          -0.0030637   0.0009255  -0.0025418  -0.0053332  -0.0076516
           GY4           0.0013866   0.0020320   0.0020778  -0.0029126   0.0049909
           GZ4          -0.0010137   0.0015530   0.0058689  -0.0194824  -0.0034581
           GX5          -0.0001127  -0.0005013   0.0005009   0.0016358   0.0031304
           GY5          -0.0009077  -0.0016302   0.0002460   0.0038055   0.0100606
           GZ5          -0.0008306   0.0006933  -0.0006561   0.0000875  -0.0050172
           GX6          -0.0002307   0.0002429  -0.0003250   0.0008624  -0.0031016
           GY6           0.0001874   0.0007098   0.0000689  -0.0020004  -0.0059662
           GZ6          -0.0004896   0.0001418   0.0006274   0.0027835   0.0013942
           GX7           0.0020747  -0.0008406   0.0009202  -0.0164583   0.0112861
           GY7          -0.0009106  -0.0007507   0.0004692   0.0021210   0.0001305
           GZ7           0.0006997   0.0005565   0.0013743  -0.0139205   0.0063272
           GX8           0.0093721  -0.0025123  -0.0094993  -0.1939201   0.0837531
           GY8           0.0037919   0.0072273  -0.0063530   0.0862263  -0.0915806
           GZ8           0.0112503  -0.0134652  -0.0211736   0.1136418  -0.0651619
                             GZ2         GX3         GY3         GZ3         GX4     
           GZ2           0.6032962
           GX3          -0.0544404   0.5773526
           GY3           0.0063233  -0.1541550   0.2246617
           GZ3          -0.1022929   0.0171335   0.1939785   0.7693252
           GX4          -0.0349940  -0.1115611   0.0058243  -0.0566259   0.6171014
           GY4           0.0018811   0.0093278  -0.0821856  -0.1141516  -0.1510583
           GZ4          -0.0298267  -0.0449874  -0.1181515  -0.4830321   0.0774940
           GX5          -0.0020748   0.0012281   0.0029801   0.0039242  -0.2879593
           GY5          -0.0042778  -0.0068802   0.0071509  -0.0054798   0.0509846
           GZ5          -0.0037115  -0.0285322   0.0056010  -0.0072465  -0.1161374
           GX6          -0.0008661   0.0049995  -0.0018542  -0.0050391  -0.2163903
           GY6           0.0026573   0.0072162   0.0006811  -0.0030704   0.0956353
           GZ6           0.0002743   0.0247871  -0.0132448  -0.0115478   0.1103504
           GX7           0.0162214  -0.2107211   0.0932841   0.1148602   0.0064384
           GY7          -0.0040013   0.0932449  -0.0937238  -0.0688995   0.0062838
           GZ7           0.0071854   0.1146942  -0.0688189  -0.1374854   0.0230594
           GX8           0.1054863  -0.0165157   0.0145696   0.0165451   0.0007679
           GY8          -0.0623584   0.0058385   0.0072922  -0.0066288  -0.0009436
           GZ8          -0.1293427  -0.0121955   0.0032304   0.0081681  -0.0006047
                             GY4         GZ4         GX5         GY5         GZ5     
           GY4           0.2107270
           GZ4           0.1747288   0.7674462
           GX5           0.0494049  -0.1213641   0.2960981
           GY5          -0.0473666   0.0175829  -0.0540346   0.0359665
           GZ5           0.0158216  -0.1136756   0.1298197  -0.0159253   0.1157845
           GX6           0.0970358   0.1149167  -0.0115450   0.0095552   0.0150102
           GY6          -0.0885981  -0.0702346   0.0014904   0.0015170  -0.0033543
           GZ6          -0.0687134  -0.1366488  -0.0115109   0.0057148   0.0088955
           GX7          -0.0029414  -0.0072529   0.0002458  -0.0021141   0.0008010
           GY7           0.0014931  -0.0020983  -0.0021625  -0.0052912   0.0019241
           GZ7          -0.0125049  -0.0108513   0.0005962   0.0019952   0.0005992
           GX8          -0.0002428   0.0016898   0.0004092  -0.0004086  -0.0002183
           GY8          -0.0010928   0.0000778  -0.0003073  -0.0004071   0.0002567
           GZ8           0.0008606   0.0007193   0.0001088   0.0001440   0.0000105
                             GX6         GY6         GZ6         GX7         GY7     
           GX6           0.2201471
           GY6          -0.1045635   0.0820913
           GZ6          -0.1220867   0.0779329   0.1418608
           GX7           0.0018400   0.0024203  -0.0027266   0.2199276
           GY7           0.0025675   0.0093291  -0.0035678  -0.1026475   0.0858270
           GZ7          -0.0021652  -0.0037735  -0.0035107  -0.1200565   0.0765706
           GX8           0.0003169  -0.0003857  -0.0011072  -0.0033471   0.0015034
           GY8           0.0001179   0.0002361   0.0003422   0.0015532   0.0029860
           GZ8           0.0005552  -0.0002263   0.0000494  -0.0027668  -0.0003971
                             GZ7         GX8         GY8         GZ8     
           GZ7           0.1435005
           GX8          -0.0029072   0.2029168
           GY8          -0.0003522  -0.0962768   0.0753389
           GZ8          -0.0008121  -0.1099891   0.0750156   0.1423810


 Atomic Masses
   1-  8   32.060000   12.011000   12.011000   12.011000    1.007940    1.007940    1.007940    1.007940

 Mass weighted Second Derivative Matrix
                             GX1         GY1         GZ1         GX2         GY2     
           GX1           0.0015024
           GY1           0.0003192   0.0010537
           GZ1           0.0024046   0.0028304   0.0123341
           GX2          -0.0028847  -0.0003323  -0.0025321   0.0428777
           GY2          -0.0004109  -0.0026827  -0.0039919  -0.0104728   0.0174969
           GZ2          -0.0027919  -0.0039044  -0.0176108   0.0021193   0.0113556
           GX3           0.0000204  -0.0000523  -0.0008388  -0.0204132   0.0038660
           GY3          -0.0002914   0.0005744  -0.0004545   0.0037524  -0.0062566
           GZ3          -0.0016268  -0.0001837  -0.0018289  -0.0049018   0.0006541
           GX4          -0.0001561   0.0000472  -0.0001295  -0.0004440  -0.0006370
           GY4           0.0000707   0.0001036   0.0001059  -0.0002425   0.0004155
           GZ4          -0.0000517   0.0000791   0.0002991  -0.0016220  -0.0002879
           GX5          -0.0000198  -0.0000882   0.0000881   0.0004701   0.0008997
           GY5          -0.0001597  -0.0002868   0.0000433   0.0010937   0.0028915
           GZ5          -0.0001461   0.0001220  -0.0001154   0.0000252  -0.0014420
           GX6          -0.0000406   0.0000427  -0.0000572   0.0002479  -0.0008914
           GY6           0.0000330   0.0001249   0.0000121  -0.0005749  -0.0017147
           GZ6          -0.0000861   0.0000249   0.0001104   0.0008000   0.0004007
           GX7           0.0003650  -0.0001479   0.0001619  -0.0047302   0.0032437
           GY7          -0.0001602  -0.0001321   0.0000825   0.0006096   0.0000375
           GZ7           0.0001231   0.0000979   0.0002418  -0.0040008   0.0018185
           GX8           0.0016487  -0.0004420  -0.0016711  -0.0557334   0.0240710
           GY8           0.0006671   0.0012714  -0.0011176   0.0247818  -0.0263206
           GZ8           0.0019791  -0.0023687  -0.0037247   0.0326611  -0.0187278
                             GZ2         GX3         GY3         GZ3         GX4     
           GZ2           0.0502286
           GX3          -0.0045325   0.0480687
           GY3           0.0005265  -0.0128345   0.0187047
           GZ3          -0.0085166   0.0014265   0.0161501   0.0640517
           GX4          -0.0029135  -0.0092882   0.0004849  -0.0047145   0.0513780
           GY4           0.0001566   0.0007766  -0.0068425  -0.0095039  -0.0125767
           GZ4          -0.0024833  -0.0037455  -0.0098369  -0.0402158   0.0064519
           GX5          -0.0005963   0.0003530   0.0008565   0.0011278  -0.0827607
           GY5          -0.0012295  -0.0019774   0.0020552  -0.0015749   0.0146532
           GZ5          -0.0010667  -0.0082003   0.0016098  -0.0020827  -0.0333784
           GX6          -0.0002489   0.0014369  -0.0005329  -0.0014483  -0.0621915
           GY6           0.0007637   0.0020740   0.0001957  -0.0008824   0.0274860
           GZ6           0.0000788   0.0071239  -0.0038066  -0.0033189   0.0317152
           GX7           0.0046621  -0.0605621   0.0268102   0.0330113   0.0018504
           GY7          -0.0011500   0.0267990  -0.0269366  -0.0198020   0.0018060
           GZ7           0.0020651   0.0329636  -0.0197788  -0.0395139   0.0066274
           GX8           0.0303172  -0.0047467   0.0041874   0.0047551   0.0002207
           GY8          -0.0179221   0.0016780   0.0020958  -0.0019051  -0.0002712
           GZ8          -0.0371736  -0.0035050   0.0009284   0.0023475  -0.0001738
                             GY4         GZ4         GX5         GY5         GZ5     
           GY4           0.0175445
           GZ4           0.0145474   0.0638953
           GX5           0.0141992  -0.0348805   0.2937656
           GY5          -0.0136134   0.0050534  -0.0536090   0.0356832
           GZ5           0.0045472  -0.0326709   0.1287971  -0.0157999   0.1148725
           GX6           0.0278885   0.0330275  -0.0114540   0.0094799   0.0148920
           GY6          -0.0254635  -0.0201857   0.0014786   0.0015051  -0.0033279
           GZ6          -0.0197485  -0.0392734  -0.0114202   0.0056698   0.0088254
           GX7          -0.0008454  -0.0020845   0.0002438  -0.0020974   0.0007947
           GY7           0.0004291  -0.0006031  -0.0021455  -0.0052495   0.0019090
           GZ7          -0.0035940  -0.0031187   0.0005915   0.0019795   0.0005945
           GX8          -0.0000698   0.0004856   0.0004060  -0.0004053  -0.0002165
           GY8          -0.0003141   0.0000223  -0.0003049  -0.0004039   0.0002547
           GZ8           0.0002473   0.0002067   0.0001079   0.0001428   0.0000105
                             GX6         GY6         GZ6         GX7         GY7     
           GX6           0.2184129
           GY6          -0.1037398   0.0814447
           GZ6          -0.1211249   0.0773190   0.1407433
           GX7           0.0018255   0.0024012  -0.0027051   0.2181951
           GY7           0.0025473   0.0092556  -0.0035397  -0.1018389   0.0851509
           GZ7          -0.0021482  -0.0037438  -0.0034831  -0.1191108   0.0759674
           GX8           0.0003144  -0.0003827  -0.0010985  -0.0033208   0.0014915
           GY8           0.0001170   0.0002342   0.0003395   0.0015409   0.0029625
           GZ8           0.0005508  -0.0002245   0.0000490  -0.0027450  -0.0003940
                             GZ7         GX8         GY8         GZ8     
           GZ7           0.1423701
           GX8          -0.0028843   0.2013183
           GY8          -0.0003494  -0.0955184   0.0747454
           GZ8          -0.0008057  -0.1091227   0.0744246   0.1412594


 Mass Weighted 2nd Derivative Matrix Eigenvalues
   1- 10   -0.000001   -0.000000   -0.000000    0.000000    0.000000    0.000001    0.000790    0.002925    0.007832    0.014772
  11- 20    0.030265    0.030943    0.034078    0.040213    0.046199    0.055548    0.063174    0.067890    0.080859    0.104685
  21- 24    0.367251    0.384594    0.393471    0.411609

 Mass Weighted 2nd Derivative Matrix Eigenvectors
                   1             2             3             4             5             6             7             8
         1     0.2783498    -0.4306273     0.6609695    -0.0743590    -0.0457993    -0.2532722    -0.1030674    -0.3482978
         2     0.3620542     0.4437527     0.0542886     0.6237259    -0.2291861    -0.3146256    -0.3006440     0.1143123
         3    -0.1867690     0.1551842     0.0684075     0.2234821     0.6244067     0.1679678     0.0910244    -0.0163818
         4    -0.1273272     0.0420969     0.4045659    -0.0455136    -0.0280328    -0.0814943     0.1607944     0.4659692
         5    -0.3365015    -0.0082547     0.0332289     0.3817699    -0.1402801    -0.2702459     0.4693437    -0.1889843
         6     0.0764375     0.1000060     0.0418708     0.1367888     0.3821865     0.1064501    -0.1427174    -0.0965978
         7     0.0035067     0.1515433     0.4045659    -0.0455136    -0.0280328     0.1969740     0.1427571     0.4324525
         8     0.1780476    -0.1919190     0.0332289     0.3817698    -0.1402801     0.4163558     0.4171637    -0.1454630
         9     0.0066676    -0.1717698     0.0418708     0.1367888     0.3821865    -0.1839203    -0.1266587     0.0084295
        10    -0.2583473     0.4068513     0.4045659    -0.0455136    -0.0280328     0.2440521    -0.1340904    -0.3215701
        11    -0.3282482    -0.4207543     0.0332289     0.3817698    -0.1402801     0.3108027    -0.3918641     0.1283790
        12     0.1738929    -0.1516269     0.0418708     0.1367888     0.3821865    -0.1641486     0.1195421     0.0601370
        13    -0.0460435     0.1412980     0.1171971    -0.0131847    -0.0081207     0.1311237    -0.0692190    -0.1802233
        14     0.0178512    -0.1614870     0.0096260     0.1105934    -0.0406372     0.2397507    -0.2025265     0.1274142
        15     0.0348603    -0.1030171     0.0121294     0.0396258     0.1107142    -0.1109549     0.0616455     0.2160916
        16    -0.1674291     0.1562871     0.1171971    -0.0131847    -0.0081207     0.0213388    -0.0809076    -0.2345316
        17    -0.3321037    -0.1375993     0.0096260     0.1105934    -0.0406372    -0.0866292    -0.2367885     0.0290985
        18     0.1065554     0.0205551     0.0121294     0.0396258     0.1107142     0.0211205     0.0721552    -0.1681472
        19     0.0939782     0.0052878     0.1171971    -0.0131847    -0.0081207     0.1066181     0.0726538     0.2027407
        20     0.2885149    -0.0396996     0.0096260     0.1105934    -0.0406372     0.2969514     0.2120218    -0.0373482
        21    -0.0544494    -0.1141806     0.0121294     0.0396258     0.1107142    -0.1217765    -0.0644385     0.1054140
        22    -0.1310976     0.0528795     0.1171971    -0.0131847    -0.0081207    -0.0717815     0.0737714     0.1850492
        23    -0.3360778    -0.0204437     0.0096260     0.1105934    -0.0406372    -0.2529122     0.2153536    -0.0525139
        24     0.0792148     0.0925802     0.0121294     0.0396258     0.1107142     0.0983754    -0.0654941     0.0357964
                   9            10            11            12            13            14            15            16
         1     0.2985556     0.0004745     0.0263377    -0.0217775     0.0006937     0.0013139    -0.0071889    -0.0387845
         2     0.0414753     0.0015233     0.0767457    -0.0721486     0.0020412     0.0038553    -0.1008204    -0.0401353
         3     0.4740923    -0.0006073    -0.0235668    -0.2615340    -0.0004093    -0.0011197    -0.3400518    -0.1758115
         4    -0.0912557     0.0291039    -0.1790717    -0.3553415    -0.0092287    -0.0185825    -0.1412398     0.4840847
         5     0.0842814     0.0845174    -0.5209777     0.1953240    -0.0276448    -0.0539315     0.1989095    -0.0760312
         6     0.1732680    -0.0256575     0.1584914     0.2399316     0.0081685     0.0162849     0.4953207     0.2962772
         7     0.0057631    -0.1192104     0.0946780     0.2480692     0.0582901    -0.0862602     0.2127626    -0.3699415
         8    -0.1240749    -0.3475973     0.2754545    -0.0701097     0.1706883    -0.2514584    -0.0893481     0.1390546
         9    -0.4027436     0.1057530    -0.0837510     0.0497353    -0.0519732     0.0768255    -0.0539123     0.0398749
        10    -0.2989354     0.0175978     0.0025141     0.2963845    -0.1565793     0.0017477    -0.2206403     0.0205838
        11    -0.0345109     0.0515199     0.0064348    -0.0599536    -0.4574575     0.0043481     0.0582723    -0.0021811
        12    -0.4499837    -0.0154909    -0.0018042     0.1375445     0.1390726    -0.0015720    -0.0565850     0.0158944
        13    -0.1464054     0.1877857    -0.0523075    -0.1102693     0.1928199    -0.0816715     0.0399746    -0.0103399
        14     0.0506292     0.5493526    -0.1524938     0.1872036     0.5639655    -0.2387222    -0.0897454     0.0132958
        15     0.0013585    -0.1672593     0.0470036     0.4887222    -0.1720384     0.0728756    -0.2494866     0.0322532
        16    -0.1849887    -0.1517292    -0.0052805    -0.2173314     0.1759746     0.1384750     0.1127113    -0.0591169
        17    -0.0162389    -0.4443528    -0.0148523    -0.0320460     0.5147765     0.4055544     0.0259321    -0.0036114
        18    -0.2608342     0.1351979     0.0041591    -0.3505539    -0.1561749    -0.1235561     0.2111526    -0.0787440
        19    -0.0414196     0.0860539    -0.0353661    -0.0843535    -0.0171616     0.2479373     0.1966103    -0.4327796
        20    -0.0365119     0.2507682    -0.1027817    -0.0310814    -0.0501652     0.7227135    -0.0171195     0.0255168
        21    -0.1675521    -0.0764000     0.0311291    -0.1966475     0.0154598    -0.2199913     0.1644524    -0.4041218
        22     0.0160672     0.1255145     0.2270636    -0.1180423     0.0156077     0.0437343     0.2060032     0.2558945
        23     0.0247085     0.3659484     0.6626324     0.0575474     0.0452719     0.1279110     0.0701770    -0.0188738
        24     0.0987389    -0.1111295    -0.2011560     0.0587425    -0.0138043    -0.0390049     0.4632947     0.2268875
                  17            18            19            20            21            22            23            24
         1     0.0221581    -0.0598899    -0.0234429    -0.0019122    -0.0002138    -0.0001820    -0.0002554     0.0000002
         2    -0.0042544    -0.0177922    -0.0096574     0.0027623    -0.0011300     0.0000868    -0.0002265    -0.0000558
         3     0.0109643    -0.1261451    -0.0582884     0.0069176    -0.0039608     0.0000814    -0.0010331    -0.0001745
         4    -0.0027900     0.2282056     0.2030012    -0.0882466    -0.2062329     0.0035770     0.0028082     0.0001922
         5    -0.0323617     0.0551455     0.0177840    -0.0110329     0.1173310    -0.0021550     0.0020143     0.0004899
         6    -0.1097547     0.4390810     0.2876717    -0.1360385     0.1535063    -0.0030424     0.0098089     0.0018334
         7    -0.3900010     0.0012366    -0.2138652     0.2139234     0.0113338     0.0348499    -0.2021134    -0.0281338
         8     0.1610686     0.0771566    -0.0113345     0.1143423    -0.0023917    -0.0107239     0.1191602     0.0168862
         9     0.0900916     0.2545994    -0.2782747     0.6166506     0.0049235     0.0040463     0.1636100     0.0237661
        10     0.2473868    -0.0152348     0.0261397    -0.1055589     0.0014599    -0.0049720     0.0350055    -0.3075550
        11    -0.1411524    -0.0693197    -0.0584161    -0.1362914    -0.0015527    -0.0639479    -0.0265512     0.1018313
        12    -0.1856310    -0.2449620    -0.1626044    -0.5665623    -0.0034694    -0.2159090    -0.0480013    -0.0105728
        13    -0.0179945     0.0717006    -0.2157565    -0.1791106     0.0058353     0.5475540    -0.0065139     0.6390138
        14     0.0458099    -0.1108247     0.2241294     0.0996657    -0.0020078    -0.1045585     0.0012156    -0.1161169
        15     0.1300675    -0.2839548     0.4943216     0.1258268    -0.0000500     0.2712222    -0.0032986     0.3359403
        16    -0.1418828    -0.1716670     0.3176976     0.2278530    -0.0127009    -0.5470387    -0.1284511     0.4270301
        17    -0.0529931    -0.0373326     0.0070714    -0.0335547     0.0058666     0.3054442     0.0722063    -0.2435998
        18    -0.3330344    -0.3153061     0.3803068     0.1463758     0.0050285     0.3901090     0.0931523    -0.3215352
        19     0.2584093     0.0738716     0.1422289    -0.1718757    -0.0164830    -0.1010444     0.6888589     0.0848298
        20     0.0715846     0.0325874     0.0108025     0.0286886     0.0095039     0.0564978    -0.3904152    -0.0482084
        21     0.5269207     0.1908121     0.1957040    -0.0988157     0.0126685     0.0716528    -0.5059999    -0.0627312
        22     0.2784374    -0.3755841    -0.1646885     0.0644709     0.6923091    -0.0139313     0.0147111     0.0072634
        23     0.0025543    -0.0015015    -0.0081479     0.0034759    -0.3984014     0.0073341    -0.0083697    -0.0032657
        24     0.3228873    -0.4290983    -0.2127232     0.0843001    -0.5302340     0.0084118    -0.0109703    -0.0025622

 Imaginary Vibration  Wavenumber
        Nr             [1/cm] 
        1                4.70
        2                0.49

   Low Vibration      Wavenumber
        Nr             [1/cm] 
        1                0.00
        2                0.00
        3                0.00
        4                3.69

     Vibration        Wavenumber
        Nr             [1/cm] 
        1              144.52
        2              278.03
        3              454.91
        4              624.78
        5              894.28
        6              904.24
        7              948.94
        8             1030.82
        9             1104.89
       10             1211.53
       11             1292.03
       12             1339.38
       13             1461.72
       14             1663.20
       15             3115.17
       16             3187.88
       17             3224.46
       18             3297.94

 FREQUENCIES * CALCULATION OF NORMAL MODES FOR MP2


 Atomic Coordinates

  Nr  Atom  Charge       X              Y              Z

   1   S    16.00   -0.506229174   -0.634118024    0.141069744
   2   C     6.00    0.083094166    0.062636045    3.099393794
   3   C     6.00    2.496337975   -0.379032162    4.369754527
   4   C     6.00    2.861218034    0.244493458    6.828838092
   5   H     1.00    4.672315428   -0.087858344    7.769891280
   6   H     1.00    1.340940192    1.102594462    7.943999004
   7   H     1.00    4.011297027   -1.240205915    3.249257545
   8   H     1.00   -1.395207338    0.931490480    4.291480966

 Frequencies dumped to record   5400.2

 Gradient norm at reference geometry: 0.11835D-03
 
 Molecule is not in standard orientation!
 Symmetry information for normal modes not available!

 Normal Modes

                              1 A         2 A         3 A         4 A         5 A  
 Wavenumbers [cm-1]          144.52      278.03      454.91      624.78      894.28
 Intensities [km/mol]          0.09        3.32        0.04        9.03        4.93
 Intensities [relative]        0.29       10.23        0.12       27.80       15.19
           GX1             -0.01820    -0.06151     0.05273     0.00008     0.00465
           GY1             -0.05310     0.02019     0.00733     0.00027     0.01355
           GZ1              0.01608    -0.00289     0.08373    -0.00011    -0.00416
           GX2              0.04640     0.13445    -0.02633     0.00840    -0.05167
           GY2              0.13543    -0.05453     0.02432     0.02439    -0.15032
           GZ2             -0.04118    -0.02787     0.05000    -0.00740     0.04573
           GX3              0.04119     0.12478     0.00166    -0.03440     0.02732
           GY3              0.12037    -0.04197    -0.03580    -0.10030     0.07948
           GZ3             -0.03655     0.00243    -0.11621     0.03051    -0.02417
           GX4             -0.03869    -0.09279    -0.08626     0.00508     0.00073
           GY4             -0.11307     0.03704    -0.00996     0.01487     0.00186
           GZ4              0.03449     0.01735    -0.12984    -0.00447    -0.00052
           GX5             -0.06895    -0.17951    -0.14583     0.18704    -0.05210
           GY5             -0.20173     0.12691     0.05043     0.54718    -0.15189
           GZ5              0.06140     0.21524     0.00135    -0.16660     0.04682
           GX6             -0.08059    -0.23361    -0.18426    -0.15113    -0.00526
           GY6             -0.23585     0.02898    -0.01617    -0.44260    -0.01479
           GZ6              0.07187    -0.16748    -0.25980     0.13466     0.00414
           GX7              0.07237     0.20194    -0.04126     0.08571    -0.03523
           GY7              0.21119    -0.03720    -0.03637     0.24978    -0.10238
           GZ7             -0.06418     0.10500    -0.16689    -0.07610     0.03101
           GX8              0.07348     0.18432     0.01600     0.12502     0.22617
           GY8              0.21450    -0.05231     0.02461     0.36450     0.66002
           GZ8             -0.06524     0.03566     0.09835    -0.11069    -0.20036

                              6 A         7 A         8 A         9 A        10 A  
 Wavenumbers [cm-1]          904.24      948.94     1030.82     1104.89     1211.53
 Intensities [km/mol]          2.18       30.21       23.11        6.58       16.65
 Intensities [relative]        6.71       93.02       71.14       20.27       51.28
           GX1             -0.00385     0.00012     0.00023    -0.00127    -0.00685
           GY1             -0.01274     0.00036     0.00068    -0.01781    -0.00709
           GZ1             -0.04619    -0.00007    -0.00020    -0.06006    -0.03105
           GX2             -0.10253    -0.00266    -0.00536    -0.04075     0.13968
           GY2              0.05636    -0.00798    -0.01556     0.05739    -0.02194
           GZ2              0.06923     0.00236     0.00470     0.14292     0.08549
           GX3              0.07158     0.01682    -0.02489     0.06139    -0.10674
           GY3             -0.02023     0.04925    -0.07256    -0.02578     0.04012
           GZ3              0.01435    -0.01500     0.02217    -0.01556     0.01151
           GX4              0.08552    -0.04518     0.00050    -0.06366     0.00594
           GY4             -0.01730    -0.13200     0.00125     0.01681    -0.00063
           GZ4              0.03969     0.04013    -0.00045    -0.01633     0.00459
           GX5             -0.10983     0.19206    -0.08135     0.03982    -0.01030
           GY5              0.18646     0.56174    -0.23778    -0.08939     0.01324
           GZ5              0.48679    -0.17136     0.07259    -0.24850     0.03213
           GX6             -0.21647     0.17528     0.13793     0.11227    -0.05888
           GY6             -0.03192     0.51274     0.40395     0.02583    -0.00360
           GZ6             -0.34917    -0.15556    -0.12307     0.21032    -0.07843
           GX7             -0.08402    -0.01709     0.24696     0.19583    -0.43107
           GY7             -0.03096    -0.04997     0.71986    -0.01705     0.02542
           GZ7             -0.19587     0.01540    -0.21912     0.16380    -0.40253
           GX8             -0.11758     0.01555     0.04356     0.20519     0.25488
           GY8              0.05732     0.04509     0.12741     0.06990    -0.01880
           GZ8              0.05851    -0.01375    -0.03885     0.46147     0.22599

                             11 A        12 A        13 A        14 A        15 A  
 Wavenumbers [cm-1]         1292.03     1339.38     1461.72     1663.20     3115.17
 Intensities [km/mol]          5.99        3.81       32.48       10.54       17.38
 Intensities [relative]       18.45       11.72      100.00       32.44       53.51
           GX1              0.00391    -0.01058    -0.00414    -0.00034    -0.00004
           GY1             -0.00075    -0.00314    -0.00171     0.00049    -0.00020
           GZ1              0.00194    -0.02228    -0.01029     0.00122    -0.00070
           GX2             -0.00081     0.06585     0.05857    -0.02546    -0.05951
           GY2             -0.00934     0.01591     0.00513    -0.00318     0.03386
           GZ2             -0.03167     0.12669     0.08301    -0.03925     0.04429
           GX3             -0.11253     0.00036    -0.06171     0.06173     0.00327
           GY3              0.04648     0.02226    -0.00327     0.03299    -0.00069
           GZ3              0.02600     0.07346    -0.08029     0.17793     0.00142
           GX4              0.07138    -0.00440     0.00754    -0.03046     0.00042
           GY4             -0.04073    -0.02000    -0.01686    -0.03933    -0.00045
           GZ4             -0.05356    -0.07068    -0.04692    -0.16348    -0.00100
           GX5             -0.01792     0.07142    -0.21491    -0.17840     0.00581
           GY5              0.04563    -0.11039     0.22324     0.09927    -0.00200
           GZ5              0.12955    -0.28283     0.49237     0.12533    -0.00005
           GX6             -0.14132    -0.17099     0.31644     0.22695    -0.01265
           GY6             -0.05278    -0.03719     0.00704    -0.03342     0.00584
           GZ6             -0.33172    -0.31406     0.37881     0.14580     0.00501
           GX7              0.25739     0.07358     0.14167    -0.17120    -0.01642
           GY7              0.07130     0.03246     0.01076     0.02858     0.00947
           GZ7              0.52484     0.19006     0.19493    -0.09843     0.01262
           GX8              0.27734    -0.37410    -0.16404     0.06422     0.68958
           GY8              0.00254    -0.00150    -0.00812     0.00346    -0.39683
           GZ8              0.32161    -0.42740    -0.21188     0.08397    -0.52814

                             16 A        17 A        18 A  
 Wavenumbers [cm-1]         3187.88     3224.46     3297.94
 Intensities [km/mol]          2.21        2.16        4.31
 Intensities [relative]        6.79        6.67       13.27
           GX1             -0.00003    -0.00005     0.00000
           GY1              0.00002    -0.00004    -0.00001
           GZ1              0.00001    -0.00018    -0.00003
           GX2              0.00103     0.00081     0.00006
           GY2             -0.00062     0.00058     0.00014
           GZ2             -0.00088     0.00283     0.00053
           GX3              0.01006    -0.05832    -0.00812
           GY3             -0.00309     0.03438     0.00487
           GZ3              0.00117     0.04721     0.00686
           GX4             -0.00143     0.01010    -0.08874
           GY4             -0.01845    -0.00766     0.02938
           GZ4             -0.06230    -0.01385    -0.00305
           GX5              0.54539    -0.00649     0.63649
           GY5             -0.10415     0.00121    -0.11566
           GZ5              0.27015    -0.00329     0.33461
           GX6             -0.54488    -0.12794     0.42534
           GY6              0.30424     0.07192    -0.24264
           GZ6              0.38857     0.09278    -0.32027
           GX7             -0.10065     0.68614     0.08450
           GY7              0.05627    -0.38887    -0.04802
           GZ7              0.07137    -0.50400    -0.06248
           GX8             -0.01388     0.01465     0.00723
           GY8              0.00731    -0.00834    -0.00325
           GZ8              0.00838    -0.01093    -0.00255


 Normal Modes of imaginary frequencies

                                  1           2
 Wavenumbers [cm-1]            4.70        0.49
 Intensities [km/mol]          1.40        1.27
 Intensities [relative]        4.31        3.92
           GX1              0.04916    -0.07605
           GY1              0.06394     0.07837
           GZ1             -0.03299     0.02741
           GX2             -0.03674     0.01215
           GY2             -0.09710    -0.00238
           GZ2              0.02206     0.02886
           GX3              0.00101     0.04373
           GY3              0.05137    -0.05538
           GZ3              0.00192    -0.04956
           GX4             -0.07454     0.11739
           GY4             -0.09471    -0.12141
           GZ4              0.05018    -0.04375
           GX5             -0.04586     0.14074
           GY5              0.01778    -0.16085
           GZ5              0.03472    -0.10261
           GX6             -0.16677     0.15567
           GY6             -0.33079    -0.13706
           GZ6              0.10613     0.02047
           GX7              0.09361     0.00527
           GY7              0.28738    -0.03954
           GZ7             -0.05423    -0.11373
           GX8             -0.13058     0.05267
           GY8             -0.33475    -0.02036
           GZ8              0.07890     0.09221


 Normal Modes of low/zero frequencies

                                  1           2           3           4
 Wavenumbers [cm-1]            0.00        0.00        0.00        3.69
 Intensities [km/mol]          0.00        0.00        0.00        0.00
 Intensities [relative]        0.00        0.00        0.00        0.00
           GX1              0.11673    -0.01313    -0.00809    -0.04473
           GY1              0.00959     0.11016    -0.04048    -0.05557
           GZ1              0.01208     0.03947     0.11028     0.02966
           GX2              0.11673    -0.01313    -0.00809    -0.02351
           GY2              0.00959     0.11016    -0.04048    -0.07798
           GZ2              0.01208     0.03947     0.11028     0.03072
           GX3              0.11673    -0.01313    -0.00809     0.05684
           GY3              0.00959     0.11016    -0.04048     0.12014
           GZ3              0.01208     0.03947     0.11028    -0.05307
           GX4              0.11673    -0.01313    -0.00809     0.07042
           GY4              0.00959     0.11016    -0.04048     0.08968
           GZ4              0.01208     0.03947     0.11028    -0.04736
           GX5              0.11673    -0.01313    -0.00809     0.13061
           GY5              0.00959     0.11016    -0.04048     0.23880
           GZ5              0.01208     0.03947     0.11028    -0.11052
           GX6              0.11673    -0.01313    -0.00809     0.02125
           GY6              0.00959     0.11016    -0.04048    -0.08629
           GZ6              0.01208     0.03947     0.11028     0.02104
           GX7              0.11673    -0.01313    -0.00809     0.10620
           GY7              0.00959     0.11016    -0.04048     0.29578
           GZ7              0.01208     0.03947     0.11028    -0.12130
           GX8              0.11673    -0.01313    -0.00809    -0.07150
           GY8              0.00959     0.11016    -0.04048    -0.25191
           GZ8              0.01208     0.03947     0.11028     0.09799


 Zero point energy:  0.05963952 [H]    13089.36 [1/CM]      156.58 [KJ/MOL]
 Frequency information read from record  5400.2

       OPTG(MP2)        MP2             HF-SCF  
   -513.95626938   -513.95626949   -513.42839082
 **********************************************************************************************************************************
 Variable memory released
